M 0.00000 0 (65.27, 65.62, 0.00), (52.65, 66.53), 5.71
M 0.00000 1 (9.54, 97.76, 0.00), (32.41, 64.08), 1.66
M 0.00000 2 (85.77, 94.85, 0.00), (74.28, 89.09), 1.61
M 0.00000 3 (16.79, 53.66, 0.00), (76.03, 83.21), 3.16
M 0.00000 4 (63.98, 76.52, 0.00), (48.86, 22.24), 5.07
M 0.00000 5 (87.09, 28.08, 0.00), (56.97, 25.86), 6.00
M 0.00000 6 (75.19, 97.16, 0.00), (91.97, 25.60), 4.58
M 0.00000 7 (62.66, 28.08, 0.00), (83.00, 20.18), 4.32
M 0.00000 8 (66.77, 41.76, 0.00), (76.02, 32.30), 5.93
M 0.00000 9 (78.24, 32.27, 0.00), (43.24, 68.04), 5.19
s 0.000693913 _7_ MAC  --- 0 UnderwaterTmac 40 [0 0 0 0] [energy 10000.000000 ei 0.000 es 0.000 et 0.000 er 0.000] ------- [0:0 0:0 0 0] 
s 0.040480200 _2_ MAC  --- 0 UnderwaterTmac 40 [0 0 0 0] [energy 10000.000000 ei 0.000 es 0.000 et 0.000 er 0.000] ------- [0:0 0:0 0 0] 
s 0.184131601 _3_ MAC  --- 0 UnderwaterTmac 40 [0 0 0 0] [energy 9999.951505 ei 0.000 es 0.000 et 0.000 er 0.048] ------- [0:0 0:0 0 0] 
s 0.184199687 _6_ MAC  --- 0 UnderwaterTmac 40 [0 0 0 0] [energy 9999.975530 ei 0.000 es 0.000 et 0.000 er 0.024] ------- [0:0 0:0 0 0] 
s 0.188609608 _8_ MAC  --- 0 UnderwaterTmac 40 [0 0 0 0] [energy 9999.951631 ei 0.000 es 0.000 et 0.000 er 0.048] ------- [0:0 0:0 0 0] 
M 0.30000 0 (63.56, 65.75, 0.00), (52.65, 66.53), 5.71
M 0.30000 1 (9.82, 97.35, 0.00), (32.41, 64.08), 1.66
M 0.30000 2 (85.34, 94.64, 0.00), (74.28, 89.09), 1.61
M 0.30000 3 (17.64, 54.08, 0.00), (76.03, 83.21), 3.16
M 0.30000 4 (63.57, 75.06, 0.00), (48.86, 22.24), 5.07
M 0.30000 5 (85.30, 27.94, 0.00), (56.97, 25.86), 6.00
M 0.30000 6 (75.50, 95.82, 0.00), (91.97, 25.60), 4.58
M 0.30000 7 (63.87, 27.61, 0.00), (83.00, 20.18), 4.32
M 0.30000 8 (68.02, 40.49, 0.00), (76.02, 32.30), 5.93
M 0.30000 9 (77.15, 33.39, 0.00), (43.24, 68.04), 5.19
s 0.361133539 _4_ MAC  --- 0 UnderwaterTmac 40 [0 0 0 0] [energy 9999.917278 ei 0.001 es 0.000 et 0.000 er 0.082] ------- [0:0 0:0 0 0] 
s 0.445677285 _0_ MAC  --- 0 UnderwaterTmac 40 [0 0 0 0] [energy 9999.893577 ei 0.002 es 0.000 et 0.000 er 0.104] ------- [0:0 0:0 0 0] 
M 0.60000 0 (61.85, 65.87, 0.00), (52.65, 66.53), 5.71
M 0.60000 1 (10.10, 96.94, 0.00), (32.41, 64.08), 1.66
M 0.60000 2 (84.91, 94.42, 0.00), (74.28, 89.09), 1.61
M 0.60000 3 (18.49, 54.51, 0.00), (76.03, 83.21), 3.16
M 0.60000 4 (63.16, 73.59, 0.00), (48.86, 22.24), 5.07
M 0.60000 5 (83.51, 27.81, 0.00), (56.97, 25.86), 6.00
M 0.60000 6 (75.81, 94.48, 0.00), (91.97, 25.60), 4.58
M 0.60000 7 (65.08, 27.14, 0.00), (83.00, 20.18), 4.32
M 0.60000 8 (69.26, 39.22, 0.00), (76.02, 32.30), 5.93
M 0.60000 9 (76.06, 34.50, 0.00), (43.24, 68.04), 5.19
s 0.809680407 _9_ MAC  --- 0 UnderwaterTmac 40 [0 0 0 0] [energy 9999.855367 ei 0.002 es 0.000 et 0.000 er 0.142] ------- [0:0 0:0 0 0] 
M 0.90000 0 (60.15, 65.99, 0.00), (52.65, 66.53), 5.71
M 0.90000 1 (10.38, 96.52, 0.00), (32.41, 64.08), 1.66
M 0.90000 2 (84.48, 94.21, 0.00), (74.28, 89.09), 1.61
M 0.90000 3 (19.34, 54.93, 0.00), (76.03, 83.21), 3.16
M 0.90000 4 (62.76, 72.12, 0.00), (48.86, 22.24), 5.07
M 0.90000 5 (81.71, 27.68, 0.00), (56.97, 25.86), 6.00
M 0.90000 6 (76.13, 93.14, 0.00), (91.97, 25.60), 4.58
M 0.90000 7 (66.29, 26.67, 0.00), (83.00, 20.18), 4.32
M 0.90000 8 (70.50, 37.95, 0.00), (76.02, 32.30), 5.93
M 0.90000 9 (74.97, 35.61, 0.00), (43.24, 68.04), 5.19
s 0.909789735 _1_ MAC  --- 0 UnderwaterTmac 40 [0 0 0 0] [energy 9999.828880 ei 0.005 es 0.000 et 0.000 er 0.166] ------- [0:0 0:0 0 0] 
s 0.922688107 _5_ MAC  --- 0 UnderwaterTmac 40 [0 0 0 0] [energy 9999.828896 ei 0.005 es 0.000 et 0.000 er 0.166] ------- [0:0 0:0 0 0] 
N -t 1.000000 -n 0 -e 9999.775061
N -t 1.000000 -n 1 -e 9999.740437
N -t 1.000000 -n 2 -e 9999.771992
N -t 1.000000 -n 3 -e 9999.733285
N -t 1.000000 -n 4 -e 9999.771477
N -t 1.000000 -n 5 -e 9999.740134
N -t 1.000000 -n 6 -e 9999.771657
N -t 1.000000 -n 7 -e 9999.737719
N -t 1.000000 -n 8 -e 9999.738304
N -t 1.000000 -n 9 -e 9999.740134
M 1.20000 0 (58.44, 66.12, 0.00), (52.65, 66.53), 5.71
M 1.20000 1 (10.66, 96.11, 0.00), (32.41, 64.08), 1.66
M 1.20000 2 (84.05, 93.99, 0.00), (74.28, 89.09), 1.61
M 1.20000 3 (20.18, 55.35, 0.00), (76.03, 83.21), 3.16
M 1.20000 4 (62.35, 70.66, 0.00), (48.86, 22.24), 5.07
M 1.20000 5 (79.92, 27.55, 0.00), (56.97, 25.86), 6.00
M 1.20000 6 (76.44, 91.81, 0.00), (91.97, 25.60), 4.58
M 1.20000 7 (67.50, 26.20, 0.00), (83.00, 20.18), 4.32
M 1.20000 8 (71.75, 36.67, 0.00), (76.02, 32.30), 5.93
M 1.20000 9 (73.88, 36.73, 0.00), (43.24, 68.04), 5.19
M 1.50000 0 (56.73, 66.24, 0.00), (52.65, 66.53), 5.71
M 1.50000 1 (10.94, 95.70, 0.00), (32.41, 64.08), 1.66
M 1.50000 2 (83.62, 93.77, 0.00), (74.28, 89.09), 1.61
M 1.50000 3 (21.03, 55.78, 0.00), (76.03, 83.21), 3.16
M 1.50000 4 (61.94, 69.19, 0.00), (48.86, 22.24), 5.07
M 1.50000 5 (78.13, 27.42, 0.00), (56.97, 25.86), 6.00
M 1.50000 6 (76.76, 90.47, 0.00), (91.97, 25.60), 4.58
M 1.50000 7 (68.70, 25.74, 0.00), (83.00, 20.18), 4.32
M 1.50000 8 (72.99, 35.40, 0.00), (76.02, 32.30), 5.93
M 1.50000 9 (72.79, 37.84, 0.00), (43.24, 68.04), 5.19
s 1.513324490 _7_ MAC  --- 0 UnderwaterTmac 40 [0 0 0 0] [energy 9999.737719 ei 0.006 es 0.000 et 0.064 er 0.193] ------- [0:0 0:0 0 9] 
s 1.587230065 _8_ MAC  --- 0 UnderwaterTmac 40 [0 0 0 0] [energy 9999.710141 ei 0.010 es 0.000 et 0.064 er 0.216] ------- [0:0 0:0 0 6] 
s 1.636358213 _1_ MAC  --- 0 UnderwaterTmac 40 [0 0 0 0] [energy 9999.712012 ei 0.010 es 0.000 et 0.064 er 0.214] ------- [0:0 0:0 0 5] 
s 1.656220690 _5_ MAC  --- 0 UnderwaterTmac 40 [0 0 0 0] [energy 9999.687708 ei 0.010 es 0.000 et 0.064 er 0.238] ------- [0:0 0:0 0 7] 
s 1.740818436 _3_ MAC  --- 0 UnderwaterTmac 40 [0 0 0 0] [energy 9999.632469 ei 0.010 es 0.000 et 0.064 er 0.293] ------- [0:0 0:0 0 9] 
s 1.766045765 _5_ MAC  --- 0 UnderwaterTmac 40 [0 0 0 0] [energy 9999.599367 ei 0.011 es 0.000 et 0.128 er 0.262] ------- [0:0 0:0 0 4] 
M 1.80000 0 (55.02, 66.36, 0.00), (52.65, 66.53), 5.71
M 1.80000 1 (11.22, 95.29, 0.00), (32.41, 64.08), 1.66
M 1.80000 2 (83.19, 93.56, 0.00), (74.28, 89.09), 1.61
M 1.80000 3 (21.88, 56.20, 0.00), (76.03, 83.21), 3.16
M 1.80000 4 (61.53, 67.73, 0.00), (48.86, 22.24), 5.07
M 1.80000 5 (76.33, 27.28, 0.00), (56.97, 25.86), 6.00
M 1.80000 6 (77.07, 89.13, 0.00), (91.97, 25.60), 4.58
M 1.80000 7 (69.91, 25.27, 0.00), (83.00, 20.18), 4.32
M 1.80000 8 (74.24, 34.13, 0.00), (76.02, 32.30), 5.93
M 1.80000 9 (71.70, 38.95, 0.00), (43.24, 68.04), 5.19
s 1.874291556 _1_ MAC  --- 0 UnderwaterTmac 40 [0 0 0 0] [energy 9999.574995 ei 0.011 es 0.000 et 0.128 er 0.286] ------- [0:0 0:0 0 7] 
s 1.891669644 _8_ MAC  --- 0 UnderwaterTmac 40 [0 0 0 0] [energy 9999.567467 ei 0.011 es 0.000 et 0.128 er 0.294] ------- [0:0 0:0 0 2] 
s 1.979907878 _3_ MAC  --- 0 UnderwaterTmac 40 [0 0 0 0] [energy 9999.498188 ei 0.011 es 0.000 et 0.128 er 0.362] ------- [0:0 0:0 0 0] 
s 1.992271065 _5_ MAC  --- 0 UnderwaterTmac 40 [0 0 0 0] [energy 9999.486238 ei 0.012 es 0.000 et 0.192 er 0.310] ------- [0:0 0:0 0 9] 
N -t 2.000000 -n 0 -e 9999.608642
N -t 2.000000 -n 1 -e 9999.486394
N -t 2.000000 -n 2 -e 9999.610143
N -t 2.000000 -n 3 -e 9999.434043
N -t 2.000000 -n 4 -e 9999.614823
N -t 2.000000 -n 5 -e 9999.422050
N -t 2.000000 -n 6 -e 9999.607156
N -t 2.000000 -n 7 -e 9999.493576
N -t 2.000000 -n 8 -e 9999.454493
N -t 2.000000 -n 9 -e 9999.567584
s 2.002023968 _6_ MAC  --- 0 UnderwaterTmac 40 [0 0 0 0] [energy 9999.607156 ei 0.012 es 0.000 et 0.064 er 0.316] ------- [0:0 0:0 0 4] 
s 2.079769662 _0_ MAC  --- 0 UnderwaterTmac 40 [0 0 0 0] [energy 9999.568623 ei 0.012 es 0.000 et 0.064 er 0.355] ------- [0:0 0:0 0 7] 
M 2.10000 0 (53.31, 66.48, 0.00), (52.65, 66.53), 5.71
M 2.10000 1 (11.50, 94.87, 0.00), (32.41, 64.08), 1.66
M 2.10000 2 (82.75, 93.34, 0.00), (74.28, 89.09), 1.61
M 2.10000 3 (22.73, 56.62, 0.00), (76.03, 83.21), 3.16
M 2.10000 4 (61.12, 66.26, 0.00), (48.86, 22.24), 5.07
M 2.10000 5 (74.54, 27.15, 0.00), (56.97, 25.86), 6.00
M 2.10000 6 (77.38, 87.79, 0.00), (91.97, 25.60), 4.58
M 2.10000 7 (71.12, 24.80, 0.00), (83.00, 20.18), 4.32
M 2.10000 8 (75.48, 32.86, 0.00), (76.02, 32.30), 5.93
M 2.10000 9 (70.61, 40.07, 0.00), (43.24, 68.04), 5.19
s 2.142471180 _7_ MAC  --- 0 UnderwaterTmac 40 [0 0 0 0] [energy 9999.432697 ei 0.012 es 0.000 et 0.128 er 0.427] ------- [0:0 0:0 0 2] 
s 2.159142470 _3_ MAC  --- 0 UnderwaterTmac 40 [0 0 0 0] [energy 9999.376854 ei 0.012 es 0.000 et 0.192 er 0.419] ------- [0:0 0:0 0 7] 
s 2.270149234 _1_ MAC  --- 0 UnderwaterTmac 40 [0 0 0 0] [energy 9999.369939 ei 0.013 es 0.000 et 0.192 er 0.425] ------- [0:0 0:0 0 9] 
s 2.274280946 _9_ MAC  --- 0 UnderwaterTmac 40 [0 0 0 0] [energy 9999.445874 ei 0.012 es 0.000 et 0.064 er 0.478] ------- [0:0 0:0 0 1] 
s 2.328071047 _8_ MAC  --- 0 UnderwaterTmac 40 [0 0 0 0] [energy 9999.325822 ei 0.013 es 0.000 et 0.192 er 0.469] ------- [0:0 0:0 0 9] 
s 2.351716699 _3_ MAC  --- 0 UnderwaterTmac 40 [0 0 0 0] [energy 9999.279723 ei 0.013 es 0.000 et 0.256 er 0.451] ------- [0:0 0:0 0 2] 
s 2.352505684 _2_ MAC  --- 0 UnderwaterTmac 40 [0 0 0 0] [energy 9999.472474 ei 0.014 es 0.000 et 0.064 er 0.450] ------- [0:0 0:0 0 6] 
s 2.375543649 _8_ MAC  --- 0 UnderwaterTmac 40 [0 0 0 0] [energy 9999.261703 ei 0.013 es 0.000 et 0.256 er 0.469] ------- [0:0 0:0 0 1] 
M 2.40000 0 (52.65, 66.53, 0.00), (90.98, 50.16), 1.39
M 2.40000 1 (11.78, 94.46, 0.00), (32.41, 64.08), 1.66
M 2.40000 2 (82.32, 93.12, 0.00), (74.28, 89.09), 1.61
M 2.40000 3 (23.58, 57.05, 0.00), (76.03, 83.21), 3.16
M 2.40000 4 (60.72, 64.80, 0.00), (48.86, 22.24), 5.07
M 2.40000 5 (72.74, 27.02, 0.00), (56.97, 25.86), 6.00
M 2.40000 6 (77.70, 86.45, 0.00), (91.97, 25.60), 4.58
M 2.40000 7 (72.33, 24.33, 0.00), (83.00, 20.18), 4.32
M 2.40000 8 (76.02, 32.30, 0.00), (39.80, 94.46), 5.25
M 2.40000 9 (69.52, 41.18, 0.00), (43.24, 68.04), 5.19
s 2.455626895 _7_ MAC  --- 0 UnderwaterTmac 40 [0 0 0 0] [energy 9999.257078 ei 0.013 es 0.000 et 0.192 er 0.538] ------- [0:0 0:0 0 1] 
s 2.457153996 _9_ MAC  --- 0 UnderwaterTmac 40 [0 0 0 0] [energy 9999.320063 ei 0.013 es 0.000 et 0.128 er 0.539] ------- [0:0 0:0 0 7] 
s 2.484242525 _1_ MAC  --- 0 UnderwaterTmac 40 [0 0 0 0] [energy 9999.217026 ei 0.013 es 0.000 et 0.256 er 0.514] ------- [0:0 0:0 0 4] 
M 2.70000 0 (53.04, 66.37, 0.00), (90.98, 50.16), 1.39
M 2.70000 1 (12.06, 94.05, 0.00), (32.41, 64.08), 1.66
M 2.70000 2 (81.89, 92.91, 0.00), (74.28, 89.09), 1.61
M 2.70000 3 (24.43, 57.47, 0.00), (76.03, 83.21), 3.16
M 2.70000 4 (60.31, 63.33, 0.00), (48.86, 22.24), 5.07
M 2.70000 5 (70.95, 26.89, 0.00), (56.97, 25.86), 6.00
M 2.70000 6 (78.01, 85.11, 0.00), (91.97, 25.60), 4.58
M 2.70000 7 (73.54, 23.86, 0.00), (83.00, 20.18), 4.32
M 2.70000 8 (75.23, 33.66, 0.00), (39.80, 94.46), 5.25
M 2.70000 9 (68.43, 42.29, 0.00), (43.24, 68.04), 5.19
M 3.00000 0 (53.42, 66.21, 0.00), (90.98, 50.16), 1.39
M 3.00000 1 (12.34, 93.64, 0.00), (32.41, 64.08), 1.66
M 3.00000 2 (81.46, 92.69, 0.00), (74.28, 89.09), 1.61
M 3.00000 3 (25.28, 57.89, 0.00), (76.03, 83.21), 3.16
M 3.00000 4 (59.90, 61.87, 0.00), (48.86, 22.24), 5.07
M 3.00000 5 (69.16, 26.76, 0.00), (56.97, 25.86), 6.00
M 3.00000 6 (78.32, 83.77, 0.00), (91.97, 25.60), 4.58
M 3.00000 7 (74.74, 23.39, 0.00), (83.00, 20.18), 4.32
M 3.00000 8 (74.44, 35.03, 0.00), (39.80, 94.46), 5.25
M 3.00000 9 (67.34, 43.41, 0.00), (43.24, 68.04), 5.19
N -t 3.000000 -n 0 -e 9999.325810
N -t 3.000000 -n 1 -e 9999.125275
N -t 3.000000 -n 2 -e 9999.313770
N -t 3.000000 -n 3 -e 9999.136046
N -t 3.000000 -n 4 -e 9999.365073
N -t 3.000000 -n 5 -e 9999.179971
N -t 3.000000 -n 6 -e 9999.327656
N -t 3.000000 -n 7 -e 9999.165037
N -t 3.000000 -n 8 -e 9999.143206
N -t 3.000000 -n 9 -e 9999.227937
s 3.091861662 _5_ MAC  --- 0 UnderwaterTmac 40 [0 0 0 0] [energy 9999.179971 ei 0.017 es 0.000 et 0.256 er 0.547] ------- [0:0 0:0 0 0] 
s 3.162698813 _7_ MAC  --- 0 UnderwaterTmac 40 [0 0 0 0] [energy 9999.140263 ei 0.018 es 0.000 et 0.256 er 0.586] ------- [0:0 0:0 0 0] 
M 3.30000 0 (53.80, 66.04, 0.00), (90.98, 50.16), 1.39
M 3.30000 1 (12.62, 93.22, 0.00), (32.41, 64.08), 1.66
M 3.30000 2 (81.03, 92.48, 0.00), (74.28, 89.09), 1.61
M 3.30000 3 (26.13, 58.32, 0.00), (76.03, 83.21), 3.16
M 3.30000 4 (59.49, 60.40, 0.00), (48.86, 22.24), 5.07
M 3.30000 5 (67.36, 26.62, 0.00), (56.97, 25.86), 6.00
M 3.30000 6 (78.64, 82.44, 0.00), (91.97, 25.60), 4.58
M 3.30000 7 (75.95, 22.92, 0.00), (83.00, 20.18), 4.32
M 3.30000 8 (73.64, 36.39, 0.00), (39.80, 94.46), 5.25
M 3.30000 9 (66.25, 44.52, 0.00), (43.24, 68.04), 5.19
s 3.331974671 _2_ MAC  --- 0 UnderwaterTmac 40 [0 0 0 0] [energy 9999.264352 ei 0.019 es 0.000 et 0.128 er 0.589] ------- [0:0 0:0 0 0] 
s 3.427976385 _4_ MAC  --- 0 UnderwaterTmac 40 [0 0 0 0] [energy 9999.290723 ei 0.020 es 0.000 et 0.064 er 0.625] ------- [0:0 0:0 0 0] 
M 3.60000 0 (54.18, 65.88, 0.00), (90.98, 50.16), 1.39
M 3.60000 1 (12.90, 92.81, 0.00), (32.41, 64.08), 1.66
M 3.60000 2 (80.60, 92.26, 0.00), (74.28, 89.09), 1.61
M 3.60000 3 (26.97, 58.74, 0.00), (76.03, 83.21), 3.16
M 3.60000 4 (59.08, 58.93, 0.00), (48.86, 22.24), 5.07
M 3.60000 5 (65.57, 26.49, 0.00), (56.97, 25.86), 6.00
M 3.60000 6 (78.95, 81.10, 0.00), (91.97, 25.60), 4.58
M 3.60000 7 (77.16, 22.45, 0.00), (83.00, 20.18), 4.32
M 3.60000 8 (72.85, 37.75, 0.00), (39.80, 94.46), 5.25
M 3.60000 9 (65.16, 45.64, 0.00), (43.24, 68.04), 5.19
s 3.669665441 _9_ MAC  --- 0 UnderwaterTmac 40 [0 0 0 0] [energy 9999.129195 ei 0.020 es 0.000 et 0.192 er 0.659] ------- [0:0 0:0 0 0] 
s 3.776547978 _0_ MAC  --- 0 UnderwaterTmac 40 [0 0 0 0] [energy 9999.201356 ei 0.022 es 0.000 et 0.128 er 0.648] ------- [0:0 0:0 0 0] 
s 3.841917595 _1_ MAC  --- 0 UnderwaterTmac 40 [0 0 0 0] [energy 9998.976080 ei 0.022 es 0.000 et 0.320 er 0.682] ------- [0:0 0:0 0 0] 
s 3.870491473 _6_ MAC  --- 0 UnderwaterTmac 40 [0 0 0 0] [energy 9999.178571 ei 0.023 es 0.000 et 0.128 er 0.670] ------- [0:0 0:0 0 0] 
M 3.90000 0 (54.57, 65.72, 0.00), (90.98, 50.16), 1.39
M 3.90000 1 (13.18, 92.40, 0.00), (32.41, 64.08), 1.66
M 3.90000 2 (80.17, 92.04, 0.00), (74.28, 89.09), 1.61
M 3.90000 3 (27.82, 59.16, 0.00), (76.03, 83.21), 3.16
M 3.90000 4 (58.67, 57.47, 0.00), (48.86, 22.24), 5.07
M 3.90000 5 (63.78, 26.36, 0.00), (56.97, 25.86), 6.00
M 3.90000 6 (79.27, 79.76, 0.00), (91.97, 25.60), 4.58
M 3.90000 7 (78.37, 21.98, 0.00), (83.00, 20.18), 4.32
M 3.90000 8 (72.06, 39.11, 0.00), (39.80, 94.46), 5.25
M 3.90000 9 (64.07, 46.75, 0.00), (43.24, 68.04), 5.19
s 3.962404049 _3_ MAC  --- 0 UnderwaterTmac 40 [0 0 0 0] [energy 9998.938578 ei 0.023 es 0.000 et 0.320 er 0.719] ------- [0:0 0:0 0 0] 
s 3.988568467 _8_ MAC  --- 0 UnderwaterTmac 40 [0 0 0 0] [energy 9998.967285 ei 0.023 es 0.000 et 0.320 er 0.690] ------- [0:0 0:0 0 0] 
N -t 4.000000 -n 0 -e 9999.076830
N -t 4.000000 -n 1 -e 9998.863431
N -t 4.000000 -n 2 -e 9999.093600
N -t 4.000000 -n 3 -e 9998.874350
N -t 4.000000 -n 4 -e 9999.119181
N -t 4.000000 -n 5 -e 9998.931049
N -t 4.000000 -n 6 -e 9999.089454
N -t 4.000000 -n 7 -e 9998.948403
N -t 4.000000 -n 8 -e 9998.902818
N -t 4.000000 -n 9 -e 9998.978373
M 4.20000 0 (54.95, 65.55, 0.00), (90.98, 50.16), 1.39
M 4.20000 1 (13.46, 91.99, 0.00), (32.41, 64.08), 1.66
M 4.20000 2 (79.74, 91.83, 0.00), (74.28, 89.09), 1.61
M 4.20000 3 (28.67, 59.59, 0.00), (76.03, 83.21), 3.16
M 4.20000 4 (58.27, 56.00, 0.00), (48.86, 22.24), 5.07
M 4.20000 5 (61.98, 26.23, 0.00), (56.97, 25.86), 6.00
M 4.20000 6 (79.58, 78.42, 0.00), (91.97, 25.60), 4.58
M 4.20000 7 (79.58, 21.51, 0.00), (83.00, 20.18), 4.32
M 4.20000 8 (71.26, 40.47, 0.00), (39.80, 94.46), 5.25
M 4.20000 9 (62.98, 47.86, 0.00), (43.24, 68.04), 5.19
M 4.50000 0 (55.33, 65.39, 0.00), (90.98, 50.16), 1.39
M 4.50000 1 (13.74, 91.57, 0.00), (32.41, 64.08), 1.66
M 4.50000 2 (79.31, 91.61, 0.00), (74.28, 89.09), 1.61
M 4.50000 3 (29.52, 60.01, 0.00), (76.03, 83.21), 3.16
M 4.50000 4 (57.86, 54.54, 0.00), (48.86, 22.24), 5.07
M 4.50000 5 (60.19, 26.10, 0.00), (56.97, 25.86), 6.00
M 4.50000 6 (79.89, 77.08, 0.00), (91.97, 25.60), 4.58
M 4.50000 7 (80.78, 21.04, 0.00), (83.00, 20.18), 4.32
M 4.50000 8 (70.47, 41.83, 0.00), (39.80, 94.46), 5.25
M 4.50000 9 (61.89, 48.98, 0.00), (43.24, 68.04), 5.19
s 4.534298994 _2_ MAC  --- 0 UnderwaterTmac 40 [0 0 0 0] [energy 9999.054156 ei 0.024 es 0.000 et 0.192 er 0.730] ------- [0:0 0:0 0 9] 
s 4.569977735 _1_ MAC  --- 0 UnderwaterTmac 40 [0 0 0 0] [energy 9998.839250 ei 0.023 es 0.000 et 0.384 er 0.754] ------- [0:0 0:0 0 7] 
s 4.571866954 _3_ MAC  --- 0 UnderwaterTmac 40 [0 0 0 0] [energy 9998.850185 ei 0.023 es 0.000 et 0.384 er 0.743] ------- [0:0 0:0 0 5] 
s 4.653181721 _3_ MAC  --- 0 UnderwaterTmac 40 [0 0 0 0] [energy 9998.782031 ei 0.027 es 0.000 et 0.448 er 0.743] ------- [0:0 0:0 0 2] 
s 4.658869514 _5_ MAC  --- 0 UnderwaterTmac 40 [0 0 0 0] [energy 9998.870068 ei 0.028 es 0.000 et 0.320 er 0.782] ------- [0:0 0:0 0 9] 
s 4.666950305 _0_ MAC  --- 0 UnderwaterTmac 40 [0 0 0 0] [energy 9998.993551 ei 0.028 es 0.000 et 0.192 er 0.787] ------- [0:0 0:0 0 7] 
s 4.712637203 _9_ MAC  --- 0 UnderwaterTmac 40 [0 0 0 0] [energy 9998.887538 ei 0.028 es 0.000 et 0.256 er 0.829] ------- [0:0 0:0 0 0] 
s 4.726057793 _5_ MAC  --- 0 UnderwaterTmac 40 [0 0 0 0] [energy 9998.782020 ei 0.028 es 0.000 et 0.384 er 0.806] ------- [0:0 0:0 0 7] 
s 4.754003269 _1_ MAC  --- 0 UnderwaterTmac 40 [0 0 0 0] [energy 9998.720168 ei 0.028 es 0.000 et 0.448 er 0.804] ------- [0:0 0:0 0 8] 
s 4.787677061 _7_ MAC  --- 0 UnderwaterTmac 40 [0 0 0 0] [energy 9998.782136 ei 0.028 es 0.000 et 0.320 er 0.870] ------- [0:0 0:0 0 9] 
s 4.797991972 _8_ MAC  --- 0 UnderwaterTmac 40 [0 0 0 0] [energy 9998.764154 ei 0.028 es 0.000 et 0.384 er 0.824] ------- [0:0 0:0 0 2] 
M 4.80000 0 (55.71, 65.23, 0.00), (90.98, 50.16), 1.39
M 4.80000 1 (14.02, 91.16, 0.00), (32.41, 64.08), 1.66
M 4.80000 2 (78.88, 91.39, 0.00), (74.28, 89.09), 1.61
M 4.80000 3 (30.37, 60.43, 0.00), (76.03, 83.21), 3.16
M 4.80000 4 (57.45, 53.07, 0.00), (48.86, 22.24), 5.07
M 4.80000 5 (58.40, 25.96, 0.00), (56.97, 25.86), 6.00
M 4.80000 6 (80.21, 75.74, 0.00), (91.97, 25.60), 4.58
M 4.80000 7 (81.99, 20.57, 0.00), (83.00, 20.18), 4.32
M 4.80000 8 (69.67, 43.20, 0.00), (39.80, 94.46), 5.25
M 4.80000 9 (60.80, 50.09, 0.00), (43.24, 68.04), 5.19
s 4.831034298 _8_ MAC  --- 0 UnderwaterTmac 40 [0 0 0 0] [energy 9998.699942 ei 0.028 es 0.000 et 0.448 er 0.824] ------- [0:0 0:0 0 5] 
s 4.886640032 _6_ MAC  --- 0 UnderwaterTmac 40 [0 0 0 0] [energy 9998.876957 ei 0.029 es 0.000 et 0.192 er 0.902] ------- [0:0 0:0 0 5] 
s 4.890915574 _9_ MAC  --- 0 UnderwaterTmac 40 [0 0 0 0] [energy 9998.766995 ei 0.028 es 0.000 et 0.320 er 0.885] ------- [0:0 0:0 0 5] 
s 4.954906657 _2_ MAC  --- 0 UnderwaterTmac 40 [0 0 0 0] [energy 9998.769922 ei 0.029 es 0.000 et 0.256 er 0.946] ------- [0:0 0:0 0 5] 
s 4.972628847 _3_ MAC  --- 0 UnderwaterTmac 40 [0 0 0 0] [energy 9998.557473 ei 0.028 es 0.000 et 0.512 er 0.903] ------- [0:0 0:0 0 6] 
s 4.972650522 _8_ MAC  --- 0 UnderwaterTmac 40 [0 0 0 0] [energy 9998.603703 ei 0.028 es 0.000 et 0.512 er 0.856] ------- [0:0 0:0 0 0] 
N -t 5.000000 -n 0 -e 9998.753862
N -t 5.000000 -n 1 -e 9998.556817
N -t 5.000000 -n 2 -e 9998.705800
N -t 5.000000 -n 3 -e 9998.493318
N -t 5.000000 -n 4 -e 9998.841261
N -t 5.000000 -n 5 -e 9998.603540
N -t 5.000000 -n 6 -e 9998.766954
N -t 5.000000 -n 7 -e 9998.639522
N -t 5.000000 -n 8 -e 9998.539450
N -t 5.000000 -n 9 -e 9998.668552
s 5.022771118 _0_ MAC  --- 0 UnderwaterTmac 40 [0 0 0 0] [energy 9998.753862 ei 0.029 es 0.000 et 0.256 er 0.961] ------- [0:0 0:0 0 2] 
s 5.082754962 _9_ MAC  --- 0 UnderwaterTmac 40 [0 0 0 0] [energy 9998.644494 ei 0.029 es 0.000 et 0.384 er 0.943] ------- [0:0 0:0 0 8] 
M 5.10000 0 (56.09, 65.06, 0.00), (90.98, 50.16), 1.39
M 5.10000 1 (14.30, 90.75, 0.00), (32.41, 64.08), 1.66
M 5.10000 2 (78.45, 91.18, 0.00), (74.28, 89.09), 1.61
M 5.10000 3 (31.22, 60.86, 0.00), (76.03, 83.21), 3.16
M 5.10000 4 (57.04, 51.61, 0.00), (48.86, 22.24), 5.07
M 5.10000 5 (56.97, 25.86, 0.00), (64.77, 41.13), 3.88
M 5.10000 6 (80.52, 74.40, 0.00), (91.97, 25.60), 4.58
M 5.10000 7 (83.00, 20.18, 0.00), (80.37, 43.37), 5.35
M 5.10000 8 (68.88, 44.56, 0.00), (39.80, 94.46), 5.25
M 5.10000 9 (59.71, 51.20, 0.00), (43.24, 68.04), 5.19
s 5.128372294 _4_ MAC  --- 0 UnderwaterTmac 40 [0 0 0 0] [energy 9998.793024 ei 0.029 es 0.000 et 0.128 er 1.050] ------- [0:0 0:0 0 5] 
s 5.199390172 _1_ MAC  --- 0 UnderwaterTmac 40 [0 0 0 0] [energy 9998.467186 ei 0.029 es 0.000 et 0.512 er 0.992] ------- [0:0 0:0 0 3] 
s 5.213402745 _6_ MAC  --- 0 UnderwaterTmac 40 [0 0 0 0] [energy 9998.685288 ei 0.029 es 0.000 et 0.256 er 1.029] ------- [0:0 0:0 0 2] 
s 5.244496596 _1_ MAC  --- 0 UnderwaterTmac 40 [0 0 0 0] [energy 9998.403183 ei 0.029 es 0.000 et 0.576 er 0.992] ------- [0:0 0:0 0 4] 
s 5.362306501 _3_ MAC  --- 0 UnderwaterTmac 40 [0 0 0 0] [energy 9998.362548 ei 0.029 es 0.000 et 0.576 er 1.032] ------- [0:0 0:0 0 1] 
M 5.40000 0 (56.48, 64.90, 0.00), (90.98, 50.16), 1.39
M 5.40000 1 (14.58, 90.33, 0.00), (32.41, 64.08), 1.66
M 5.40000 2 (78.02, 90.96, 0.00), (74.28, 89.09), 1.61
M 5.40000 3 (32.07, 61.28, 0.00), (76.03, 83.21), 3.16
M 5.40000 4 (56.63, 50.14, 0.00), (48.86, 22.24), 5.07
M 5.40000 5 (57.50, 26.89, 0.00), (64.77, 41.13), 3.88
M 5.40000 6 (80.84, 73.06, 0.00), (91.97, 25.60), 4.58
M 5.40000 7 (82.82, 21.78, 0.00), (80.37, 43.37), 5.35
M 5.40000 8 (68.09, 45.92, 0.00), (39.80, 94.46), 5.25
M 5.40000 9 (58.62, 52.32, 0.00), (43.24, 68.04), 5.19
s 5.431794209 _6_ MAC  --- 0 UnderwaterTmac 40 [0 0 0 0] [energy 9998.572091 ei 0.031 es 0.000 et 0.320 er 1.077] ------- [0:0 0:0 0 7] 
s 5.465063991 _1_ MAC  --- 0 UnderwaterTmac 40 [0 0 0 0] [energy 9998.314211 ei 0.030 es 0.000 et 0.640 er 1.016] ------- [0:0 0:0 0 9] 
s 5.481263819 _2_ MAC  --- 0 UnderwaterTmac 40 [0 0 0 0] [energy 9998.495215 ei 0.030 es 0.000 et 0.320 er 1.155] ------- [0:0 0:0 0 0] 
s 5.487364716 _4_ MAC  --- 0 UnderwaterTmac 40 [0 0 0 0] [energy 9998.629346 ei 0.031 es 0.000 et 0.192 er 1.148] ------- [0:0 0:0 0 0] 
M 5.70000 0 (56.86, 64.74, 0.00), (90.98, 50.16), 1.39
M 5.70000 1 (14.86, 89.92, 0.00), (32.41, 64.08), 1.66
M 5.70000 2 (77.59, 90.75, 0.00), (74.28, 89.09), 1.61
M 5.70000 3 (32.92, 61.70, 0.00), (76.03, 83.21), 3.16
M 5.70000 4 (56.23, 48.68, 0.00), (48.86, 22.24), 5.07
M 5.70000 5 (58.03, 27.93, 0.00), (64.77, 41.13), 3.88
M 5.70000 6 (81.15, 71.73, 0.00), (91.97, 25.60), 4.58
M 5.70000 7 (82.64, 23.37, 0.00), (80.37, 43.37), 5.35
M 5.70000 8 (67.29, 47.28, 0.00), (39.80, 94.46), 5.25
M 5.70000 9 (57.53, 53.43, 0.00), (43.24, 68.04), 5.19
M 6.00000 0 (57.24, 64.57, 0.00), (90.98, 50.16), 1.39
M 6.00000 1 (15.14, 89.51, 0.00), (32.41, 64.08), 1.66
M 6.00000 2 (77.16, 90.53, 0.00), (74.28, 89.09), 1.61
M 6.00000 3 (33.76, 62.13, 0.00), (76.03, 83.21), 3.16
M 6.00000 4 (55.82, 47.21, 0.00), (48.86, 22.24), 5.07
M 6.00000 5 (58.56, 28.96, 0.00), (64.77, 41.13), 3.88
M 6.00000 6 (81.46, 70.39, 0.00), (91.97, 25.60), 4.58
M 6.00000 7 (82.46, 24.97, 0.00), (80.37, 43.37), 5.35
M 6.00000 8 (66.50, 48.64, 0.00), (39.80, 94.46), 5.25
M 6.00000 9 (56.44, 54.54, 0.00), (43.24, 68.04), 5.19
N -t 6.000000 -n 0 -e 9998.510434
N -t 6.000000 -n 1 -e 9998.220009
N -t 6.000000 -n 2 -e 9998.403535
N -t 6.000000 -n 3 -e 9998.230648
N -t 6.000000 -n 4 -e 9998.561491
N -t 6.000000 -n 5 -e 9998.375855
N -t 6.000000 -n 6 -e 9998.467275
N -t 6.000000 -n 7 -e 9998.398694
N -t 6.000000 -n 8 -e 9998.320106
N -t 6.000000 -n 9 -e 9998.411960
s 6.069693053 _9_ MAC  --- 0 UnderwaterTmac 40 [0 0 0 0] [energy 9998.411960 ei 0.034 es 0.000 et 0.448 er 1.106] ------- [0:0 0:0 0 0] 
s 6.131096445 _4_ MAC  --- 0 UnderwaterTmac 40 [0 0 0 0] [energy 9998.536891 ei 0.035 es 0.000 et 0.256 er 1.172] ------- [0:0 0:0 0 0] 
s 6.210645036 _1_ MAC  --- 0 UnderwaterTmac 40 [0 0 0 0] [energy 9998.170903 ei 0.035 es 0.000 et 0.704 er 1.090] ------- [0:0 0:0 0 0] 
s 6.214139741 _8_ MAC  --- 0 UnderwaterTmac 40 [0 0 0 0] [energy 9998.271255 ei 0.035 es 0.000 et 0.576 er 1.118] ------- [0:0 0:0 0 0] 
M 6.30000 0 (57.62, 64.41, 0.00), (90.98, 50.16), 1.39
M 6.30000 1 (15.42, 89.10, 0.00), (32.41, 64.08), 1.66
M 6.30000 2 (76.73, 90.31, 0.00), (74.28, 89.09), 1.61
M 6.30000 3 (34.61, 62.55, 0.00), (76.03, 83.21), 3.16
M 6.30000 4 (55.41, 45.75, 0.00), (48.86, 22.24), 5.07
M 6.30000 5 (59.08, 30.00, 0.00), (64.77, 41.13), 3.88
M 6.30000 6 (81.78, 69.05, 0.00), (91.97, 25.60), 4.58
M 6.30000 7 (82.28, 26.56, 0.00), (80.37, 43.37), 5.35
M 6.30000 8 (65.71, 50.01, 0.00), (39.80, 94.46), 5.25
M 6.30000 9 (55.36, 55.66, 0.00), (43.24, 68.04), 5.19
s 6.392957930 _7_ MAC  --- 0 UnderwaterTmac 40 [0 0 0 0] [energy 9998.301286 ei 0.035 es 0.000 et 0.384 er 1.279] ------- [0:0 0:0 0 0] 
s 6.578628917 _5_ MAC  --- 0 UnderwaterTmac 40 [0 0 0 0] [energy 9998.253893 ei 0.036 es 0.000 et 0.448 er 1.262] ------- [0:0 0:0 0 0] 
M 6.60000 0 (58.01, 64.25, 0.00), (90.98, 50.16), 1.39
M 6.60000 1 (15.70, 88.68, 0.00), (32.41, 64.08), 1.66
M 6.60000 2 (76.30, 90.10, 0.00), (74.28, 89.09), 1.61
M 6.60000 3 (35.46, 62.97, 0.00), (76.03, 83.21), 3.16
M 6.60000 4 (55.00, 44.28, 0.00), (48.86, 22.24), 5.07
M 6.60000 5 (59.61, 31.03, 0.00), (64.77, 41.13), 3.88
M 6.60000 6 (82.09, 67.71, 0.00), (91.97, 25.60), 4.58
M 6.60000 7 (82.10, 28.16, 0.00), (80.37, 43.37), 5.35
M 6.60000 8 (64.91, 51.37, 0.00), (39.80, 94.46), 5.25
M 6.60000 9 (54.27, 56.77, 0.00), (43.24, 68.04), 5.19
s 6.600379079 _2_ MAC  --- 0 UnderwaterTmac 40 [0 0 0 0] [energy 9998.297852 ei 0.037 es 0.000 et 0.384 er 1.282] ------- [0:0 0:0 0 0] 
s 6.758866459 _0_ MAC  --- 0 UnderwaterTmac 40 [0 0 0 0] [energy 9998.358018 ei 0.038 es 0.000 et 0.320 er 1.284] ------- [0:0 0:0 0 0] 
s 6.874560389 _3_ MAC  --- 0 UnderwaterTmac 40 [0 0 0 0] [energy 9998.057993 ei 0.038 es 0.000 et 0.640 er 1.264] ------- [0:0 0:0 0 0] 
M 6.90000 0 (58.39, 64.08, 0.00), (90.98, 50.16), 1.39
M 6.90000 1 (15.98, 88.27, 0.00), (32.41, 64.08), 1.66
M 6.90000 2 (75.87, 89.88, 0.00), (74.28, 89.09), 1.61
M 6.90000 3 (36.31, 63.40, 0.00), (76.03, 83.21), 3.16
M 6.90000 4 (54.59, 42.81, 0.00), (48.86, 22.24), 5.07
M 6.90000 5 (60.14, 32.07, 0.00), (64.77, 41.13), 3.88
M 6.90000 6 (82.41, 66.37, 0.00), (91.97, 25.60), 4.58
M 6.90000 7 (81.92, 29.75, 0.00), (80.37, 43.37), 5.35
M 6.90000 8 (64.12, 52.73, 0.00), (39.80, 94.46), 5.25
M 6.90000 9 (53.18, 57.89, 0.00), (43.24, 68.04), 5.19
s 6.971410414 _6_ MAC  --- 0 UnderwaterTmac 40 [0 0 0 0] [energy 9998.268215 ei 0.040 es 0.000 et 0.384 er 1.308] ------- [0:0 0:0 0 0] 
N -t 7.000000 -n 0 -e 9998.243858
N -t 7.000000 -n 1 -e 9997.971821
N -t 7.000000 -n 2 -e 9998.158455
N -t 7.000000 -n 3 -e 9997.992695
N -t 7.000000 -n 4 -e 9998.278461
N -t 7.000000 -n 5 -e 9998.090454
N -t 7.000000 -n 6 -e 9998.203943
N -t 7.000000 -n 7 -e 9998.113035
N -t 7.000000 -n 8 -e 9998.034518
N -t 7.000000 -n 9 -e 9998.133252
M 7.20000 0 (58.77, 63.92, 0.00), (90.98, 50.16), 1.39
M 7.20000 1 (16.26, 87.86, 0.00), (32.41, 64.08), 1.66
M 7.20000 2 (75.43, 89.66, 0.00), (74.28, 89.09), 1.61
M 7.20000 3 (37.16, 63.82, 0.00), (76.03, 83.21), 3.16
M 7.20000 4 (54.19, 41.35, 0.00), (48.86, 22.24), 5.07
M 7.20000 5 (60.67, 33.10, 0.00), (64.77, 41.13), 3.88
M 7.20000 6 (82.72, 65.03, 0.00), (91.97, 25.60), 4.58
M 7.20000 7 (81.73, 31.35, 0.00), (80.37, 43.37), 5.35
M 7.20000 8 (63.33, 54.09, 0.00), (39.80, 94.46), 5.25
M 7.20000 9 (52.09, 59.00, 0.00), (43.24, 68.04), 5.19
M 7.50000 0 (59.15, 63.76, 0.00), (90.98, 50.16), 1.39
M 7.50000 1 (16.54, 87.45, 0.00), (32.41, 64.08), 1.66
M 7.50000 2 (75.00, 89.45, 0.00), (74.28, 89.09), 1.61
M 7.50000 3 (38.01, 64.24, 0.00), (76.03, 83.21), 3.16
M 7.50000 4 (53.78, 39.88, 0.00), (48.86, 22.24), 5.07
M 7.50000 5 (61.20, 34.14, 0.00), (64.77, 41.13), 3.88
M 7.50000 6 (83.03, 63.69, 0.00), (91.97, 25.60), 4.58
M 7.50000 7 (81.55, 32.94, 0.00), (80.37, 43.37), 5.35
M 7.50000 8 (62.53, 55.45, 0.00), (39.80, 94.46), 5.25
M 7.50000 9 (51.00, 60.11, 0.00), (43.24, 68.04), 5.19
s 7.500327932 _2_ MAC  --- 0 UnderwaterTmac 40 [0 0 0 0] [energy 9998.158455 ei 0.040 es 0.000 et 0.448 er 1.354] ------- [0:0 0:0 0 0] 
s 7.529681026 _1_ MAC  --- 0 UnderwaterTmac 40 [0 0 0 0] [energy 9997.947676 ei 0.040 es 0.000 et 0.768 er 1.244] ------- [0:0 0:0 0 6] 
s 7.540293509 _2_ MAC  --- 0 UnderwaterTmac 40 [0 0 0 0] [energy 9998.090611 ei 0.044 es 0.000 et 0.512 er 1.354] ------- [0:0 0:0 0 7] 
s 7.570452213 _5_ MAC  --- 0 UnderwaterTmac 40 [0 0 0 0] [energy 9998.062390 ei 0.044 es 0.000 et 0.512 er 1.382] ------- [0:0 0:0 0 8] 
s 7.624196032 _8_ MAC  --- 0 UnderwaterTmac 40 [0 0 0 0] [energy 9997.967096 ei 0.044 es 0.000 et 0.640 er 1.349] ------- [0:0 0:0 0 6] 
s 7.635616821 _3_ MAC  --- 0 UnderwaterTmac 40 [0 0 0 0] [energy 9997.891577 ei 0.044 es 0.000 et 0.704 er 1.361] ------- [0:0 0:0 0 4] 
s 7.678366968 _3_ MAC  --- 0 UnderwaterTmac 40 [0 0 0 0] [energy 9997.827513 ei 0.044 es 0.000 et 0.768 er 1.361] ------- [0:0 0:0 0 7] 
s 7.689812468 _4_ MAC  --- 0 UnderwaterTmac 40 [0 0 0 0] [energy 9998.183308 ei 0.045 es 0.000 et 0.320 er 1.452] ------- [0:0 0:0 0 3] 
s 7.752977164 _7_ MAC  --- 0 UnderwaterTmac 40 [0 0 0 0] [energy 9997.982728 ei 0.044 es 0.000 et 0.448 er 1.525] ------- [0:0 0:0 0 0] 
s 7.755920001 _6_ MAC  --- 0 UnderwaterTmac 40 [0 0 0 0] [energy 9998.051219 ei 0.045 es 0.000 et 0.448 er 1.456] ------- [0:0 0:0 0 4] 
s 7.793064570 _1_ MAC  --- 0 UnderwaterTmac 40 [0 0 0 0] [energy 9997.757064 ei 0.044 es 0.000 et 0.832 er 1.367] ------- [0:0 0:0 0 8] 
M 7.80000 0 (59.53, 63.59, 0.00), (90.98, 50.16), 1.39
M 7.80000 1 (16.82, 87.03, 0.00), (32.41, 64.08), 1.66
M 7.80000 2 (74.57, 89.23, 0.00), (74.28, 89.09), 1.61
M 7.80000 3 (38.86, 64.67, 0.00), (76.03, 83.21), 3.16
M 7.80000 4 (53.37, 38.42, 0.00), (48.86, 22.24), 5.07
M 7.80000 5 (61.73, 35.17, 0.00), (64.77, 41.13), 3.88
M 7.80000 6 (83.35, 62.36, 0.00), (91.97, 25.60), 4.58
M 7.80000 7 (81.37, 34.54, 0.00), (80.37, 43.37), 5.35
M 7.80000 8 (61.74, 56.81, 0.00), (39.80, 94.46), 5.25
M 7.80000 9 (49.91, 61.23, 0.00), (43.24, 68.04), 5.19
s 7.817911751 _4_ MAC  --- 0 UnderwaterTmac 40 [0 0 0 0] [energy 9998.087699 ei 0.045 es 0.000 et 0.384 er 1.483] ------- [0:0 0:0 0 8] 