M 0.00000 1 (440.00, 0.00, 0.00), (464.00, 6.13), 1.09
M 0.00000 2 (450.00, 50.00, 0.00), (331.66, 9.09), 1.25
M 0.30000 1 (440.32, 0.08, 0.00), (464.00, 6.13), 1.09
M 0.30000 2 (449.65, 49.88, 0.00), (331.66, 9.09), 1.25
M 0.60000 1 (440.64, 0.16, 0.00), (464.00, 6.13), 1.09
M 0.60000 2 (449.29, 49.76, 0.00), (331.66, 9.09), 1.25
M 0.90000 1 (440.95, 0.24, 0.00), (464.00, 6.13), 1.09
M 0.90000 2 (448.94, 49.63, 0.00), (331.66, 9.09), 1.25
N -t 1.000000 -n 0 -e 9999.992000
N -t 1.000000 -n 1 -e 9999.992000
N -t 1.000000 -n 2 -e 9999.992000
N -t 1.000000 -n 3 -e 9999.992000
N -t 1.000000 -n 4 -e 9999.992000
N -t 1.000000 -n 5 -e 9999.992000
M 1.20000 1 (441.27, 0.32, 0.00), (464.00, 6.13), 1.09
M 1.20000 2 (448.58, 49.51, 0.00), (331.66, 9.09), 1.25
s 1.330025000 _1_ MAC  --- 0 vectorbasedforward 50 [0 1000000 ffff0008 0] [energy 9999.992000 ei 0.008 es 0.000 et 0.000 er 0.000] ------- [1:0 1:255 0 0] 
r 1.400599267 _4_ MAC  --- 0 vectorbasedforward 50 [0 1000000 ffff0008 0] [energy 9999.959115 ei 0.011 es 0.000 et 0.000 er 0.030] ------- [1:0 1:255 0 0] 
r 1.403089747 _2_ MAC  --- 0 vectorbasedforward 50 [0 1000000 ffff0008 0] [energy 9999.959095 ei 0.011 es 0.000 et 0.000 er 0.030] ------- [1:0 1:255 0 0] 
r 1.409087288 _0_ MAC  --- 0 vectorbasedforward 50 [0 1000000 ffff0008 0] [energy 9999.959047 ei 0.011 es 0.000 et 0.000 er 0.030] ------- [1:0 1:255 0 0] 
r 1.412473151 _5_ MAC  --- 0 vectorbasedforward 50 [0 1000000 ffff0008 0] [energy 9999.959020 ei 0.011 es 0.000 et 0.000 er 0.030] ------- [1:0 1:255 0 0] 
r 1.430698448 _3_ MAC  --- 0 vectorbasedforward 50 [0 1000000 ffff0008 0] [energy 9999.958874 ei 0.011 es 0.000 et 0.000 er 0.030] ------- [1:0 1:255 0 0] 
M 1.50000 1 (441.59, 0.41, 0.00), (464.00, 6.13), 1.09
M 1.50000 2 (448.23, 49.39, 0.00), (331.66, 9.09), 1.25
M 1.80000 1 (441.91, 0.49, 0.00), (464.00, 6.13), 1.09
M 1.80000 2 (447.87, 49.27, 0.00), (331.66, 9.09), 1.25
s 1.830025000 _2_ MAC  --- 1 vectorbasedforward 50 [0 2000000 ffff0008 0] [energy 9999.959095 ei 0.011 es 0.000 et 0.000 er 0.030] ------- [2:0 2:255 0 0] 
r 1.901625521 _4_ MAC  --- 1 vectorbasedforward 50 [0 2000000 ffff0008 0] [energy 9999.925427 ei 0.015 es 0.000 et 0.000 er 0.060] ------- [2:0 2:255 0 0] 
r 1.902767803 _1_ MAC  --- 1 vectorbasedforward 50 [0 2000000 ffff0008 0] [energy 9999.875418 ei 0.015 es 0.000 et 0.080 er 0.030] ------- [2:0 2:255 0 0] 
r 1.907448574 _3_ MAC  --- 1 vectorbasedforward 50 [0 2000000 ffff0008 0] [energy 9999.925380 ei 0.015 es 0.000 et 0.000 er 0.060] ------- [2:0 2:255 0 0] 
r 1.916778834 _5_ MAC  --- 1 vectorbasedforward 50 [0 2000000 ffff0008 0] [energy 9999.925306 ei 0.015 es 0.000 et 0.000 er 0.060] ------- [2:0 2:255 0 0] 
r 1.917851521 _0_ MAC  --- 1 vectorbasedforward 50 [0 2000000 ffff0008 0] [energy 9999.925297 ei 0.015 es 0.000 et 0.000 er 0.060] ------- [2:0 2:255 0 0] 
N -t 2.000000 -n 0 -e 9999.924640
N -t 2.000000 -n 1 -e 9999.874640
N -t 2.000000 -n 2 -e 9999.874640
N -t 2.000000 -n 3 -e 9999.924640
N -t 2.000000 -n 4 -e 9999.924640
N -t 2.000000 -n 5 -e 9999.924640
M 2.10000 1 (442.22, 0.57, 0.00), (464.00, 6.13), 1.09
M 2.10000 2 (447.52, 49.14, 0.00), (331.66, 9.09), 1.25
s 2.330025000 _3_ MAC  --- 2 vectorbasedforward 50 [0 3000000 ffff0008 0] [energy 9999.924640 ei 0.015 es 0.000 et 0.000 er 0.060] ------- [3:0 3:255 0 0] 
M 2.40000 1 (442.54, 0.65, 0.00), (464.00, 6.13), 1.09
M 2.40000 2 (447.17, 49.02, 0.00), (331.66, 9.09), 1.25
r 2.407864569 _2_ MAC  --- 2 vectorbasedforward 50 [0 3000000 ffff0008 0] [energy 9999.841697 ei 0.018 es 0.000 et 0.080 er 0.060] ------- [3:0 3:255 0 0] 
r 2.413741257 _4_ MAC  --- 2 vectorbasedforward 50 [0 3000000 ffff0008 0] [energy 9999.891650 ei 0.018 es 0.000 et 0.000 er 0.090] ------- [3:0 3:255 0 0] 
r 2.416691667 _0_ MAC  --- 2 vectorbasedforward 50 [0 3000000 ffff0008 0] [energy 9999.891626 ei 0.018 es 0.000 et 0.000 er 0.090] ------- [3:0 3:255 0 0] 
r 2.418559066 _5_ MAC  --- 2 vectorbasedforward 50 [0 3000000 ffff0008 0] [energy 9999.891612 ei 0.018 es 0.000 et 0.000 er 0.090] ------- [3:0 3:255 0 0] 
r 2.430107777 _1_ MAC  --- 2 vectorbasedforward 50 [0 3000000 ffff0008 0] [energy 9999.841519 ei 0.018 es 0.000 et 0.080 er 0.060] ------- [3:0 3:255 0 0] 
M 2.70000 1 (442.86, 0.73, 0.00), (464.00, 6.13), 1.09
M 2.70000 2 (446.81, 48.90, 0.00), (331.66, 9.09), 1.25
s 2.830025000 _4_ MAC  --- 3 vectorbasedforward 50 [0 4000000 ffff0008 0] [energy 9999.891650 ei 0.018 es 0.000 et 0.000 er 0.090] ------- [4:0 4:255 0 0] 
r 2.886354932 _5_ MAC  --- 3 vectorbasedforward 50 [0 4000000 ffff0008 0] [energy 9999.858189 ei 0.022 es 0.000 et 0.000 er 0.120] ------- [4:0 4:255 0 0] 
r 2.899833569 _1_ MAC  --- 3 vectorbasedforward 50 [0 4000000 ffff0008 0] [energy 9999.808081 ei 0.022 es 0.000 et 0.080 er 0.090] ------- [4:0 4:255 0 0] 
r 2.901294438 _0_ MAC  --- 3 vectorbasedforward 50 [0 4000000 ffff0008 0] [energy 9999.858070 ei 0.022 es 0.000 et 0.000 er 0.120] ------- [4:0 4:255 0 0] 
r 2.901835850 _2_ MAC  --- 3 vectorbasedforward 50 [0 4000000 ffff0008 0] [energy 9999.808065 ei 0.022 es 0.000 et 0.080 er 0.090] ------- [4:0 4:255 0 0] 
r 2.913741257 _3_ MAC  --- 3 vectorbasedforward 50 [0 4000000 ffff0008 0] [energy 9999.807970 ei 0.022 es 0.000 et 0.080 er 0.090] ------- [4:0 4:255 0 0] 
M 3.00000 1 (443.18, 0.81, 0.00), (464.00, 6.13), 1.09
M 3.00000 2 (446.46, 48.78, 0.00), (331.66, 9.09), 1.25
N -t 3.000000 -n 0 -e 9999.857280
N -t 3.000000 -n 1 -e 9999.807280
N -t 3.000000 -n 2 -e 9999.807280
N -t 3.000000 -n 3 -e 9999.807280
N -t 3.000000 -n 4 -e 9999.807280
N -t 3.000000 -n 5 -e 9999.857280
s 3.135760120 _1_ MAC  --- 1 vectorbasedforward 50 [0 1000000 ffff0008 0] [energy 9999.807280 ei 0.023 es 0.000 et 0.080 er 0.090] ------- [2:0 2:255 0 0] 
r 3.205415133 _4_ MAC  --- 1 vectorbasedforward 50 [0 1000000 ffff0008 0] [energy 9999.775957 ei 0.024 es 0.000 et 0.080 er 0.120] ------- [2:0 2:255 0 0] 
r 3.207736674 _2_ MAC  --- 1 vectorbasedforward 50 [0 1000000 ffff0008 0] [energy 9999.775938 ei 0.024 es 0.000 et 0.080 er 0.120] ------- [2:0 2:255 0 0] 
r 3.213551797 _0_ MAC  --- 1 vectorbasedforward 50 [0 1000000 ffff0008 0] [energy 9999.825892 ei 0.024 es 0.000 et 0.000 er 0.150] ------- [2:0 2:255 0 0] 
r 3.217194921 _5_ MAC  --- 1 vectorbasedforward 50 [0 1000000 ffff0008 0] [energy 9999.825862 ei 0.024 es 0.000 et 0.000 er 0.150] ------- [2:0 2:255 0 0] 
s 3.226292170 _2_ MAC  --- 2 vectorbasedforward 50 [0 2000000 ffff0008 0] [energy 9999.775938 ei 0.024 es 0.000 et 0.080 er 0.120] ------- [3:0 3:255 0 0] 
r 3.235369187 _3_ MAC  --- 1 vectorbasedforward 50 [0 1000000 ffff0008 0] [energy 9999.775717 ei 0.024 es 0.000 et 0.080 er 0.120] ------- [2:0 2:255 0 0] 
r 3.298191999 _4_ MAC  --- 2 vectorbasedforward 50 [0 2000000 ffff0008 0] [energy 9999.745534 ei 0.024 es 0.000 et 0.080 er 0.150] ------- [3:0 3:255 0 0] 
r 3.298219731 _1_ MAC  --- 2 vectorbasedforward 50 [0 2000000 ffff0008 0] [energy 9999.695534 ei 0.024 es 0.000 et 0.160 er 0.120] ------- [3:0 3:255 0 0] 
M 3.30000 1 (443.49, 0.89, 0.00), (464.00, 6.13), 1.09
M 3.30000 2 (446.10, 48.65, 0.00), (331.66, 9.09), 1.25
r 3.304877446 _3_ MAC  --- 2 vectorbasedforward 50 [0 2000000 ffff0008 0] [energy 9999.745481 ei 0.025 es 0.000 et 0.080 er 0.150] ------- [3:0 3:255 0 0] 
r 3.313506245 _5_ MAC  --- 2 vectorbasedforward 50 [0 2000000 ffff0008 0] [energy 9999.795412 ei 0.025 es 0.000 et 0.000 er 0.180] ------- [3:0 3:255 0 0] 
r 3.314667904 _0_ MAC  --- 2 vectorbasedforward 50 [0 2000000 ffff0008 0] [energy 9999.795403 ei 0.025 es 0.000 et 0.000 er 0.180] ------- [3:0 3:255 0 0] 
s 3.330025000 _5_ MAC  --- 4 vectorbasedforward 50 [0 5000000 ffff0008 0] [energy 9999.795412 ei 0.025 es 0.000 et 0.000 er 0.180] ------- [5:0 5:255 0 0] 
r 3.386354932 _4_ MAC  --- 4 vectorbasedforward 50 [0 5000000 ffff0008 0] [energy 9999.715149 ei 0.025 es 0.000 et 0.080 er 0.180] ------- [5:0 5:255 0 0] 
r 3.398309271 _0_ MAC  --- 4 vectorbasedforward 50 [0 5000000 ffff0008 0] [energy 9999.765054 ei 0.025 es 0.000 et 0.000 er 0.210] ------- [5:0 5:255 0 0] 
r 3.411351796 _1_ MAC  --- 4 vectorbasedforward 50 [0 5000000 ffff0008 0] [energy 9999.664949 ei 0.025 es 0.000 et 0.160 er 0.150] ------- [5:0 5:255 0 0] 
r 3.417274231 _2_ MAC  --- 4 vectorbasedforward 50 [0 5000000 ffff0008 0] [energy 9999.664902 ei 0.025 es 0.000 et 0.160 er 0.150] ------- [5:0 5:255 0 0] 
r 3.418559066 _3_ MAC  --- 4 vectorbasedforward 50 [0 5000000 ffff0008 0] [energy 9999.714892 ei 0.025 es 0.000 et 0.080 er 0.180] ------- [5:0 5:255 0 0] 
M 3.60000 1 (443.81, 0.97, 0.00), (464.00, 6.13), 1.09
M 3.60000 2 (445.75, 48.53, 0.00), (331.66, 9.09), 1.25
M 3.90000 1 (444.13, 1.05, 0.00), (464.00, 6.13), 1.09
M 3.90000 2 (445.40, 48.41, 0.00), (331.66, 9.09), 1.25
s 3.978640634 _1_ MAC  --- 3 vectorbasedforward 50 [0 1000000 ffff0008 0] [energy 9999.664949 ei 0.025 es 0.000 et 0.160 er 0.150] ------- [4:0 4:255 0 0] 
N -t 4.000000 -n 0 -e 9999.760240
N -t 4.000000 -n 1 -e 9999.580411
N -t 4.000000 -n 2 -e 9999.660240
N -t 4.000000 -n 3 -e 9999.710240
N -t 4.000000 -n 4 -e 9999.710240
N -t 4.000000 -n 5 -e 9999.710240
r 4.047876913 _4_ MAC  --- 3 vectorbasedforward 50 [0 1000000 ffff0008 0] [energy 9999.680177 ei 0.030 es 0.000 et 0.080 er 0.210] ------- [4:0 4:255 0 0] 
r 4.050182570 _2_ MAC  --- 3 vectorbasedforward 50 [0 1000000 ffff0008 0] [energy 9999.630159 ei 0.030 es 0.000 et 0.160 er 0.180] ------- [4:0 4:255 0 0] 
r 4.055840272 _0_ MAC  --- 3 vectorbasedforward 50 [0 1000000 ffff0008 0] [energy 9999.730113 ei 0.030 es 0.000 et 0.000 er 0.240] ------- [4:0 4:255 0 0] 
r 4.059608294 _5_ MAC  --- 3 vectorbasedforward 50 [0 1000000 ffff0008 0] [energy 9999.680083 ei 0.030 es 0.000 et 0.080 er 0.210] ------- [4:0 4:255 0 0] 
r 4.077756322 _3_ MAC  --- 3 vectorbasedforward 50 [0 1000000 ffff0008 0] [energy 9999.679938 ei 0.030 es 0.000 et 0.080 er 0.210] ------- [4:0 4:255 0 0] 
M 4.20000 1 (444.45, 1.14, 0.00), (464.00, 6.13), 1.09
M 4.20000 2 (445.04, 48.29, 0.00), (331.66, 9.09), 1.25
M 4.50000 1 (444.76, 1.22, 0.00), (464.00, 6.13), 1.09
M 4.50000 2 (444.69, 48.16, 0.00), (331.66, 9.09), 1.25
s 4.584429037 _1_ MAC  --- 4 vectorbasedforward 50 [0 1000000 ffff0008 0] [energy 9999.580411 ei 0.030 es 0.000 et 0.240 er 0.150] ------- [5:0 5:255 0 0] 
s 4.591724086 _4_ MAC  --- 4 vectorbasedforward 50 [0 4000000 ffff0008 0] [energy 9999.680177 ei 0.030 es 0.000 et 0.080 er 0.210] ------- [5:0 5:255 0 0] 
D 4.648054018 _5_ MAC Error/Collision 4 vectorbasedforward 50 [0 4000000 ffff0008 0] [energy 9999.632939 ei 0.034 es 0.000 et 0.080 er 0.253] ------- [5:0 5:255 0 0] 
r 4.653368666 _4_ MAC  --- 4 vectorbasedforward 50 [0 1000000 ffff0008 0] [energy 9999.579593 ei 0.034 es 0.000 et 0.160 er 0.226] ------- [5:0 5:255 0 0] 
D 4.655689041 _2_ MAC Error/Collision 4 vectorbasedforward 50 [0 1000000 ffff0008 0] [energy 9999.589435 ei 0.034 es 0.000 et 0.160 er 0.216] ------- [5:0 5:255 0 0] 
r 4.660660166 _1_ MAC  --- 4 vectorbasedforward 50 [0 4000000 ffff0008 0] [energy 9999.468711 ei 0.034 es 0.000 et 0.320 er 0.177] ------- [5:0 5:255 0 0] 
D 4.661203610 _0_ MAC Error/Collision 4 vectorbasedforward 50 [0 1000000 ffff0008 0] [energy 9999.694248 ei 0.034 es 0.000 et 0.000 er 0.271] ------- [5:0 5:255 0 0] 
D 4.662993524 _0_ MAC Error/Collision 4 vectorbasedforward 50 [0 4000000 ffff0008 0] [energy 9999.694248 ei 0.034 es 0.000 et 0.000 er 0.271] ------- [5:0 5:255 0 0] 
D 4.663954525 _2_ MAC Error/Collision 4 vectorbasedforward 50 [0 4000000 ffff0008 0] [energy 9999.589435 ei 0.034 es 0.000 et 0.160 er 0.216] ------- [5:0 5:255 0 0] 
D 4.665063367 _5_ MAC Error/Collision 4 vectorbasedforward 50 [0 1000000 ffff0008 0] [energy 9999.632939 ei 0.034 es 0.000 et 0.080 er 0.253] ------- [5:0 5:255 0 0] 
D 4.675440343 _3_ MAC Error/Collision 4 vectorbasedforward 50 [0 4000000 ffff0008 0] [energy 9999.639663 ei 0.035 es 0.000 et 0.080 er 0.246] ------- [5:0 5:255 0 0] 
D 4.683191530 _3_ MAC Error/Collision 4 vectorbasedforward 50 [0 1000000 ffff0008 0] [energy 9999.639663 ei 0.035 es 0.000 et 0.080 er 0.246] ------- [5:0 5:255 0 0] 
s 4.716182710 _3_ MAC  --- 4 vectorbasedforward 50 [0 3000000 ffff0008 0] [energy 9999.639663 ei 0.035 es 0.000 et 0.080 er 0.246] ------- [5:0 5:255 0 0] 
r 4.796007660 _2_ MAC  --- 4 vectorbasedforward 50 [0 3000000 ffff0008 0] [energy 9999.558699 ei 0.035 es 0.000 et 0.160 er 0.246] ------- [5:0 5:255 0 0] 
r 4.799898967 _4_ MAC  --- 4 vectorbasedforward 50 [0 3000000 ffff0008 0] [energy 9999.548741 ei 0.035 es 0.000 et 0.160 er 0.256] ------- [5:0 5:255 0 0] 
M 4.80000 1 (445.08, 1.30, 0.00), (464.00, 6.13), 1.09
M 4.80000 2 (444.33, 48.04, 0.00), (331.66, 9.09), 1.25
r 4.802849377 _0_ MAC  --- 4 vectorbasedforward 50 [0 3000000 ffff0008 0] [energy 9999.663449 ei 0.035 es 0.000 et 0.000 er 0.301] ------- [5:0 5:255 0 0] 
r 4.804716776 _5_ MAC  --- 4 vectorbasedforward 50 [0 3000000 ffff0008 0] [energy 9999.602141 ei 0.035 es 0.000 et 0.080 er 0.283] ------- [5:0 5:255 0 0] 
r 4.814868544 _1_ MAC  --- 4 vectorbasedforward 50 [0 3000000 ffff0008 0] [energy 9999.437798 ei 0.035 es 0.000 et 0.320 er 0.207] ------- [5:0 5:255 0 0] 
N -t 5.000000 -n 0 -e 9999.661872
N -t 5.000000 -n 1 -e 9999.436317
N -t 5.000000 -n 2 -e 9999.557067
N -t 5.000000 -n 3 -e 9999.557449
N -t 5.000000 -n 4 -e 9999.547140
N -t 5.000000 -n 5 -e 9999.600579
M 5.10000 1 (445.40, 1.38, 0.00), (464.00, 6.13), 1.09
M 5.10000 2 (443.98, 47.92, 0.00), (331.66, 9.09), 1.25
M 5.40000 1 (445.72, 1.46, 0.00), (464.00, 6.13), 1.09
M 5.40000 2 (443.62, 47.80, 0.00), (331.66, 9.09), 1.25
M 5.70000 1 (446.03, 1.54, 0.00), (464.00, 6.13), 1.09
M 5.70000 2 (443.27, 47.67, 0.00), (331.66, 9.09), 1.25
M 6.00000 1 (446.35, 1.62, 0.00), (464.00, 6.13), 1.09
M 6.00000 2 (442.92, 47.55, 0.00), (331.66, 9.09), 1.25
N -t 6.000000 -n 0 -e 9999.653872
N -t 6.000000 -n 1 -e 9999.428317
N -t 6.000000 -n 2 -e 9999.549067
N -t 6.000000 -n 3 -e 9999.549449
N -t 6.000000 -n 4 -e 9999.539140
N -t 6.000000 -n 5 -e 9999.592579
M 6.30000 1 (446.67, 1.70, 0.00), (464.00, 6.13), 1.09
M 6.30000 2 (442.56, 47.43, 0.00), (331.66, 9.09), 1.25
M 6.60000 1 (446.99, 1.78, 0.00), (464.00, 6.13), 1.09
M 6.60000 2 (442.21, 47.31, 0.00), (331.66, 9.09), 1.25
M 6.90000 1 (447.30, 1.87, 0.00), (464.00, 6.13), 1.09
M 6.90000 2 (441.85, 47.18, 0.00), (331.66, 9.09), 1.25
N -t 7.000000 -n 0 -e 9999.645872
N -t 7.000000 -n 1 -e 9999.420317
N -t 7.000000 -n 2 -e 9999.541067
N -t 7.000000 -n 3 -e 9999.541449
N -t 7.000000 -n 4 -e 9999.531140
N -t 7.000000 -n 5 -e 9999.584579
M 7.20000 1 (447.62, 1.95, 0.00), (464.00, 6.13), 1.09
M 7.20000 2 (441.50, 47.06, 0.00), (331.66, 9.09), 1.25
M 7.50000 1 (447.94, 2.03, 0.00), (464.00, 6.13), 1.09
M 7.50000 2 (441.14, 46.94, 0.00), (331.66, 9.09), 1.25
M 7.80000 1 (448.26, 2.11, 0.00), (464.00, 6.13), 1.09
M 7.80000 2 (440.79, 46.82, 0.00), (331.66, 9.09), 1.25
N -t 8.000000 -n 0 -e 9999.637872
N -t 8.000000 -n 1 -e 9999.412317
N -t 8.000000 -n 2 -e 9999.533067
N -t 8.000000 -n 3 -e 9999.533449
N -t 8.000000 -n 4 -e 9999.523140
N -t 8.000000 -n 5 -e 9999.576579
M 8.10000 1 (448.57, 2.19, 0.00), (464.00, 6.13), 1.09
M 8.10000 2 (440.44, 46.69, 0.00), (331.66, 9.09), 1.25
M 8.40000 1 (448.89, 2.27, 0.00), (464.00, 6.13), 1.09
M 8.40000 2 (440.08, 46.57, 0.00), (331.66, 9.09), 1.25
M 8.70000 1 (449.21, 2.35, 0.00), (464.00, 6.13), 1.09
M 8.70000 2 (439.73, 46.45, 0.00), (331.66, 9.09), 1.25
N -t 9.000000 -n 0 -e 9999.629872
N -t 9.000000 -n 1 -e 9999.404317
N -t 9.000000 -n 2 -e 9999.525067
N -t 9.000000 -n 3 -e 9999.525449
N -t 9.000000 -n 4 -e 9999.515140
N -t 9.000000 -n 5 -e 9999.568579
M 9.00000 1 (449.53, 2.43, 0.00), (464.00, 6.13), 1.09
M 9.00000 2 (439.37, 46.33, 0.00), (331.66, 9.09), 1.25
M 9.30000 1 (449.84, 2.51, 0.00), (464.00, 6.13), 1.09
M 9.30000 2 (439.02, 46.20, 0.00), (331.66, 9.09), 1.25
M 9.60000 1 (450.16, 2.60, 0.00), (464.00, 6.13), 1.09
M 9.60000 2 (438.67, 46.08, 0.00), (331.66, 9.09), 1.25
M 9.90000 1 (450.48, 2.68, 0.00), (464.00, 6.13), 1.09
M 9.90000 2 (438.31, 45.96, 0.00), (331.66, 9.09), 1.25
N -t 10.000000 -n 0 -e 9999.621872
N -t 10.000000 -n 1 -e 9999.396317
N -t 10.000000 -n 2 -e 9999.517067
N -t 10.000000 -n 3 -e 9999.517449
N -t 10.000000 -n 4 -e 9999.507140
N -t 10.000000 -n 5 -e 9999.560579
M 10.20000 1 (450.80, 2.76, 0.00), (464.00, 6.13), 1.09
M 10.20000 2 (437.96, 45.84, 0.00), (331.66, 9.09), 1.25
M 10.50000 1 (451.11, 2.84, 0.00), (464.00, 6.13), 1.09
M 10.50000 2 (437.60, 45.71, 0.00), (331.66, 9.09), 1.25
M 10.80000 1 (451.43, 2.92, 0.00), (464.00, 6.13), 1.09
M 10.80000 2 (437.25, 45.59, 0.00), (331.66, 9.09), 1.25
N -t 11.000000 -n 0 -e 9999.613872
N -t 11.000000 -n 1 -e 9999.388317
N -t 11.000000 -n 2 -e 9999.509067
N -t 11.000000 -n 3 -e 9999.509449
N -t 11.000000 -n 4 -e 9999.499140
N -t 11.000000 -n 5 -e 9999.552579
M 11.10000 1 (451.75, 3.00, 0.00), (464.00, 6.13), 1.09
M 11.10000 2 (436.89, 45.47, 0.00), (331.66, 9.09), 1.25
s 11.330025000 _1_ MAC  --- 5 vectorbasedforward 50 [0 1000000 ffff0008 0] [energy 9999.388317 ei 0.085 es 0.000 et 0.320 er 0.207] ------- [1:0 1:255 0 0] 
r 11.395940842 _4_ MAC  --- 5 vectorbasedforward 50 [0 1000000 ffff0008 0] [energy 9999.466292 ei 0.087 es 0.000 et 0.160 er 0.286] ------- [1:0 1:255 0 0] 
M 11.40000 1 (452.07, 3.08, 0.00), (464.00, 6.13), 1.09
M 11.40000 2 (436.54, 45.35, 0.00), (331.66, 9.09), 1.25
r 11.400036200 _2_ MAC  --- 5 vectorbasedforward 50 [0 1000000 ffff0008 0] [energy 9999.476187 ei 0.088 es 0.000 et 0.160 er 0.276] ------- [1:0 1:255 0 0] 
r 11.402095766 _0_ MAC  --- 5 vectorbasedforward 50 [0 1000000 ffff0008 0] [energy 9999.580975 ei 0.088 es 0.000 et 0.000 er 0.331] ------- [1:0 1:255 0 0] 
r 11.407100124 _5_ MAC  --- 5 vectorbasedforward 50 [0 1000000 ffff0008 0] [energy 9999.519642 ei 0.088 es 0.000 et 0.080 er 0.313] ------- [1:0 1:255 0 0] 
r 11.424940619 _3_ MAC  --- 5 vectorbasedforward 50 [0 1000000 ffff0008 0] [energy 9999.476369 ei 0.088 es 0.000 et 0.160 er 0.276] ------- [1:0 1:255 0 0] 
M 11.70000 1 (452.38, 3.16, 0.00), (464.00, 6.13), 1.09
M 11.70000 2 (436.19, 45.22, 0.00), (331.66, 9.09), 1.25
s 11.830025000 _2_ MAC  --- 6 vectorbasedforward 50 [0 2000000 ffff0008 0] [energy 9999.476187 ei 0.088 es 0.000 et 0.160 er 0.276] ------- [2:0 2:255 0 0] 
r 11.900088505 _1_ MAC  --- 6 vectorbasedforward 50 [0 2000000 ffff0008 0] [energy 9999.271756 ei 0.091 es 0.000 et 0.400 er 0.237] ------- [2:0 2:255 0 0] 
r 11.904584991 _4_ MAC  --- 6 vectorbasedforward 50 [0 2000000 ffff0008 0] [energy 9999.432543 ei 0.091 es 0.000 et 0.160 er 0.316] ------- [2:0 2:255 0 0] 
r 11.915769951 _3_ MAC  --- 6 vectorbasedforward 50 [0 2000000 ffff0008 0] [energy 9999.442762 ei 0.091 es 0.000 et 0.160 er 0.306] ------- [2:0 2:255 0 0] 
r 11.920575361 _5_ MAC  --- 6 vectorbasedforward 50 [0 2000000 ffff0008 0] [energy 9999.485854 ei 0.091 es 0.000 et 0.080 er 0.343] ------- [2:0 2:255 0 0] 
r 11.922230945 _0_ MAC  --- 6 vectorbasedforward 50 [0 2000000 ffff0008 0] [energy 9999.547134 ei 0.092 es 0.000 et 0.000 er 0.361] ------- [2:0 2:255 0 0] 
N -t 12.000000 -n 0 -e 9999.546512
N -t 12.000000 -n 1 -e 9999.270957
N -t 12.000000 -n 2 -e 9999.391707
N -t 12.000000 -n 3 -e 9999.442089
N -t 12.000000 -n 4 -e 9999.431780
N -t 12.000000 -n 5 -e 9999.485219
M 12.00000 1 (452.70, 3.24, 0.00), (464.00, 6.13), 1.09
M 12.00000 2 (435.83, 45.10, 0.00), (331.66, 9.09), 1.25
M 12.30000 1 (453.02, 3.33, 0.00), (464.00, 6.13), 1.09
M 12.30000 2 (435.48, 44.98, 0.00), (331.66, 9.09), 1.25
s 12.330025000 _3_ MAC  --- 7 vectorbasedforward 50 [0 3000000 ffff0008 0] [energy 9999.442089 ei 0.092 es 0.000 et 0.160 er 0.306] ------- [3:0 3:255 0 0] 
r 12.413741257 _4_ MAC  --- 7 vectorbasedforward 50 [0 3000000 ffff0008 0] [energy 9999.398790 ei 0.095 es 0.000 et 0.160 er 0.346] ------- [3:0 3:255 0 0] 
r 12.416186088 _2_ MAC  --- 7 vectorbasedforward 50 [0 3000000 ffff0008 0] [energy 9999.358698 ei 0.095 es 0.000 et 0.240 er 0.306] ------- [3:0 3:255 0 0] 
r 12.416691667 _0_ MAC  --- 7 vectorbasedforward 50 [0 3000000 ffff0008 0] [energy 9999.513498 ei 0.095 es 0.000 et 0.000 er 0.391] ------- [3:0 3:255 0 0] 
r 12.418559066 _5_ MAC  --- 7 vectorbasedforward 50 [0 3000000 ffff0008 0] [energy 9999.452191 ei 0.095 es 0.000 et 0.080 er 0.373] ------- [3:0 3:255 0 0] 
r 12.424384955 _1_ MAC  --- 7 vectorbasedforward 50 [0 3000000 ffff0008 0] [energy 9999.237881 ei 0.095 es 0.000 et 0.400 er 0.267] ------- [3:0 3:255 0 0] 
M 12.60000 1 (453.34, 3.41, 0.00), (464.00, 6.13), 1.09
M 12.60000 2 (435.12, 44.86, 0.00), (331.66, 9.09), 1.25
s 12.618220856 _2_ MAC  --- 5 vectorbasedforward 50 [0 2000000 ffff0008 0] [energy 9999.358698 ei 0.095 es 0.000 et 0.240 er 0.306] ------- [1:0 1:255 0 0] 
r 12.688407572 _1_ MAC  --- 5 vectorbasedforward 50 [0 2000000 ffff0008 0] [energy 9999.206089 ei 0.097 es 0.000 et 0.400 er 0.297] ------- [1:0 1:255 0 0] 
r 12.693088090 _4_ MAC  --- 5 vectorbasedforward 50 [0 2000000 ffff0008 0] [energy 9999.366875 ei 0.097 es 0.000 et 0.160 er 0.376] ------- [1:0 1:255 0 0] 
r 12.704621803 _3_ MAC  --- 5 vectorbasedforward 50 [0 2000000 ffff0008 0] [energy 9999.327092 ei 0.097 es 0.000 et 0.240 er 0.336] ------- [1:0 1:255 0 0] 
r 12.709116381 _5_ MAC  --- 5 vectorbasedforward 50 [0 2000000 ffff0008 0] [energy 9999.420186 ei 0.097 es 0.000 et 0.080 er 0.403] ------- [1:0 1:255 0 0] 
r 12.710812571 _0_ MAC  --- 5 vectorbasedforward 50 [0 2000000 ffff0008 0] [energy 9999.481465 ei 0.097 es 0.000 et 0.000 er 0.421] ------- [1:0 1:255 0 0] 
s 12.830025000 _4_ MAC  --- 8 vectorbasedforward 50 [0 4000000 ffff0008 0] [energy 9999.366875 ei 0.097 es 0.000 et 0.160 er 0.376] ------- [4:0 4:255 0 0] 
r 12.886354932 _5_ MAC  --- 8 vectorbasedforward 50 [0 4000000 ffff0008 0] [energy 9999.389088 ei 0.098 es 0.000 et 0.080 er 0.433] ------- [4:0 4:255 0 0] 
r 12.895349018 _1_ MAC  --- 8 vectorbasedforward 50 [0 4000000 ffff0008 0] [energy 9999.174754 ei 0.098 es 0.000 et 0.400 er 0.327] ------- [4:0 4:255 0 0] 
M 12.90000 1 (453.65, 3.49, 0.00), (464.00, 6.13), 1.09
M 12.90000 2 (434.77, 44.73, 0.00), (331.66, 9.09), 1.25
r 12.901294438 _0_ MAC  --- 8 vectorbasedforward 50 [0 4000000 ffff0008 0] [energy 9999.450262 ei 0.098 es 0.000 et 0.000 er 0.451] ------- [4:0 4:255 0 0] 
r 12.904976437 _2_ MAC  --- 8 vectorbasedforward 50 [0 4000000 ffff0008 0] [energy 9999.245427 ei 0.098 es 0.000 et 0.320 er 0.336] ------- [4:0 4:255 0 0] 
r 12.913741257 _3_ MAC  --- 8 vectorbasedforward 50 [0 4000000 ffff0008 0] [energy 9999.295739 ei 0.098 es 0.000 et 0.240 er 0.366] ------- [4:0 4:255 0 0] 
N -t 13.000000 -n 0 -e 9999.449472
N -t 13.000000 -n 1 -e 9999.173917
N -t 13.000000 -n 2 -e 9999.244667
N -t 13.000000 -n 3 -e 9999.295049
N -t 13.000000 -n 4 -e 9999.284740
N -t 13.000000 -n 5 -e 9999.388179
s 13.147483946 _2_ MAC  --- 7 vectorbasedforward 50 [0 2000000 ffff0008 0] [energy 9999.244667 ei 0.099 es 0.000 et 0.320 er 0.336] ------- [3:0 3:255 0 0] 
M 13.20000 1 (453.97, 3.57, 0.00), (464.00, 6.13), 1.09
M 13.20000 2 (434.41, 44.61, 0.00), (331.66, 9.09), 1.25
r 13.217781124 _1_ MAC  --- 7 vectorbasedforward 50 [0 2000000 ffff0008 0] [energy 9999.142494 ei 0.100 es 0.000 et 0.400 er 0.357] ------- [3:0 3:255 0 0] 
r 13.222562874 _4_ MAC  --- 7 vectorbasedforward 50 [0 2000000 ffff0008 0] [energy 9999.253279 ei 0.100 es 0.000 et 0.240 er 0.406] ------- [3:0 3:255 0 0] 
r 13.234325394 _3_ MAC  --- 7 vectorbasedforward 50 [0 2000000 ffff0008 0] [energy 9999.263494 ei 0.101 es 0.000 et 0.240 er 0.396] ------- [3:0 3:255 0 0] 
r 13.238614667 _5_ MAC  --- 7 vectorbasedforward 50 [0 2000000 ffff0008 0] [energy 9999.356590 ei 0.101 es 0.000 et 0.080 er 0.463] ------- [3:0 3:255 0 0] 
r 13.240337696 _0_ MAC  --- 7 vectorbasedforward 50 [0 2000000 ffff0008 0] [energy 9999.417869 ei 0.101 es 0.000 et 0.000 er 0.481] ------- [3:0 3:255 0 0] 
s 13.330025000 _5_ MAC  --- 9 vectorbasedforward 50 [0 5000000 ffff0008 0] [energy 9999.356590 ei 0.101 es 0.000 et 0.080 er 0.463] ------- [5:0 5:255 0 0] 
r 13.386354932 _4_ MAC  --- 9 vectorbasedforward 50 [0 5000000 ffff0008 0] [energy 9999.222289 ei 0.101 es 0.000 et 0.240 er 0.436] ------- [5:0 5:255 0 0] 
r 13.398309271 _0_ MAC  --- 9 vectorbasedforward 50 [0 5000000 ffff0008 0] [energy 9999.386925 ei 0.102 es 0.000 et 0.000 er 0.511] ------- [5:0 5:255 0 0] 
r 13.406105974 _1_ MAC  --- 9 vectorbasedforward 50 [0 5000000 ffff0008 0] [energy 9999.111308 ei 0.102 es 0.000 et 0.400 er 0.387] ------- [5:0 5:255 0 0] 
r 13.418559066 _3_ MAC  --- 9 vectorbasedforward 50 [0 5000000 ffff0008 0] [energy 9999.232340 ei 0.102 es 0.000 et 0.240 er 0.426] ------- [5:0 5:255 0 0] 
r 13.421237468 _2_ MAC  --- 9 vectorbasedforward 50 [0 5000000 ffff0008 0] [energy 9999.131937 ei 0.102 es 0.000 et 0.400 er 0.366] ------- [5:0 5:255 0 0] 
M 13.50000 1 (454.29, 3.65, 0.00), (464.00, 6.13), 1.09
M 13.50000 2 (434.06, 44.49, 0.00), (331.66, 9.09), 1.25
M 13.80000 1 (454.61, 3.73, 0.00), (464.00, 6.13), 1.09
M 13.80000 2 (433.71, 44.37, 0.00), (331.66, 9.09), 1.25
s 13.976064643 _2_ MAC  --- 8 vectorbasedforward 50 [0 2000000 ffff0008 0] [energy 9999.131937 ei 0.102 es 0.000 et 0.400 er 0.366] ------- [4:0 4:255 0 0] 
N -t 14.000000 -n 0 -e 9999.382112
N -t 14.000000 -n 1 -e 9999.106557
N -t 14.000000 -n 2 -e 9999.047498
N -t 14.000000 -n 3 -e 9999.227689
N -t 14.000000 -n 4 -e 9999.217380
N -t 14.000000 -n 5 -e 9999.270819
r 14.046578833 _1_ MAC  --- 8 vectorbasedforward 50 [0 2000000 ffff0008 0] [energy 9999.076504 ei 0.106 es 0.000 et 0.400 er 0.417] ------- [4:0 4:255 0 0] 
r 14.051483462 _4_ MAC  --- 8 vectorbasedforward 50 [0 2000000 ffff0008 0] [energy 9999.187288 ei 0.106 es 0.000 et 0.240 er 0.466] ------- [4:0 4:255 0 0] 
s 14.056646794 _1_ MAC  --- 8 vectorbasedforward 50 [0 1000000 ffff0008 0] [energy 9999.076504 ei 0.106 es 0.000 et 0.400 er 0.417] ------- [4:0 4:255 0 0] 
r 14.063595720 _3_ MAC  --- 8 vectorbasedforward 50 [0 2000000 ffff0008 0] [energy 9999.197500 ei 0.107 es 0.000 et 0.240 er 0.456] ------- [4:0 4:255 0 0] 
r 14.067568991 _5_ MAC  --- 8 vectorbasedforward 50 [0 2000000 ffff0008 0] [energy 9999.240599 ei 0.107 es 0.000 et 0.160 er 0.493] ------- [4:0 4:255 0 0] 
r 14.069333355 _0_ MAC  --- 8 vectorbasedforward 50 [0 2000000 ffff0008 0] [energy 9999.351877 ei 0.107 es 0.000 et 0.000 er 0.541] ------- [4:0 4:255 0 0] 
M 14.10000 1 (454.92, 3.81, 0.00), (464.00, 6.13), 1.09
M 14.10000 2 (433.35, 44.24, 0.00), (331.66, 9.09), 1.25
r 14.121512059 _4_ MAC  --- 8 vectorbasedforward 50 [0 1000000 ffff0008 0] [energy 9999.157048 ei 0.107 es 0.000 et 0.240 er 0.496] ------- [4:0 4:255 0 0] 
r 14.126835110 _0_ MAC  --- 8 vectorbasedforward 50 [0 1000000 ffff0008 0] [energy 9999.321737 ei 0.107 es 0.000 et 0.000 er 0.571] ------- [4:0 4:255 0 0] 
r 14.127184925 _2_ MAC  --- 8 vectorbasedforward 50 [0 1000000 ffff0008 0] [energy 9999.016930 ei 0.107 es 0.000 et 0.480 er 0.396] ------- [4:0 4:255 0 0] 
r 14.132374438 _5_ MAC  --- 8 vectorbasedforward 50 [0 1000000 ffff0008 0] [energy 9999.210400 ei 0.107 es 0.000 et 0.160 er 0.523] ------- [4:0 4:255 0 0] 
r 14.150057093 _3_ MAC  --- 8 vectorbasedforward 50 [0 1000000 ffff0008 0] [energy 9999.167128 ei 0.107 es 0.000 et 0.240 er 0.486] ------- [4:0 4:255 0 0] 
M 14.40000 1 (455.24, 3.89, 0.00), (464.00, 6.13), 1.09
M 14.40000 2 (433.00, 44.12, 0.00), (331.66, 9.09), 1.25
s 14.534565198 _1_ MAC  --- 9 vectorbasedforward 50 [0 1000000 ffff0008 0] [energy 9998.996423 ei 0.106 es 0.000 et 0.480 er 0.417] ------- [5:0 5:255 0 0] 
r 14.599258165 _4_ MAC  --- 9 vectorbasedforward 50 [0 1000000 ffff0008 0] [energy 9999.123546 ei 0.110 es 0.000 et 0.240 er 0.526] ------- [5:0 5:255 0 0] 
r 14.604424937 _0_ MAC  --- 9 vectorbasedforward 50 [0 1000000 ffff0008 0] [energy 9999.288236 ei 0.110 es 0.000 et 0.000 er 0.601] ------- [5:0 5:255 0 0] 
r 14.605255517 _2_ MAC  --- 9 vectorbasedforward 50 [0 1000000 ffff0008 0] [energy 9998.983425 ei 0.110 es 0.000 et 0.480 er 0.426] ------- [5:0 5:255 0 0] 
r 14.610062830 _5_ MAC  --- 9 vectorbasedforward 50 [0 1000000 ffff0008 0] [energy 9999.176899 ei 0.110 es 0.000 et 0.160 er 0.553] ------- [5:0 5:255 0 0] 
r 14.627714896 _3_ MAC  --- 9 vectorbasedforward 50 [0 1000000 ffff0008 0] [energy 9999.133627 ei 0.111 es 0.000 et 0.240 er 0.516] ------- [5:0 5:255 0 0] 
s 14.672503861 _4_ MAC  --- 9 vectorbasedforward 50 [0 4000000 ffff0008 0] [energy 9999.123546 ei 0.110 es 0.000 et 0.240 er 0.526] ------- [5:0 5:255 0 0] 
M 14.70000 1 (455.56, 3.97, 0.00), (464.00, 6.13), 1.09
M 14.70000 2 (432.64, 44.00, 0.00), (331.66, 9.09), 1.25
r 14.728833793 _5_ MAC  --- 9 vectorbasedforward 50 [0 4000000 ffff0008 0] [energy 9999.146268 ei 0.111 es 0.000 et 0.160 er 0.583] ------- [5:0 5:255 0 0] 
r 14.737147788 _1_ MAC  --- 9 vectorbasedforward 50 [0 4000000 ffff0008 0] [energy 9998.881939 ei 0.111 es 0.000 et 0.560 er 0.447] ------- [5:0 5:255 0 0] 
r 14.743773299 _0_ MAC  --- 9 vectorbasedforward 50 [0 4000000 ffff0008 0] [energy 9999.257442 ei 0.111 es 0.000 et 0.000 er 0.631] ------- [5:0 5:255 0 0] 
r 14.748216178 _2_ MAC  --- 9 vectorbasedforward 50 [0 4000000 ffff0008 0] [energy 9998.952601 ei 0.111 es 0.000 et 0.480 er 0.456] ------- [5:0 5:255 0 0] 
r 14.756220118 _3_ MAC  --- 9 vectorbasedforward 50 [0 4000000 ffff0008 0] [energy 9999.102919 ei 0.111 es 0.000 et 0.240 er 0.546] ------- [5:0 5:255 0 0] 
N -t 15.000000 -n 0 -e 9999.255392
N -t 15.000000 -n 1 -e 9998.879837
N -t 15.000000 -n 2 -e 9998.950587
N -t 15.000000 -n 3 -e 9999.100969
N -t 15.000000 -n 4 -e 9999.040660
N -t 15.000000 -n 5 -e 9999.144099
M 15.00000 1 (455.88, 4.06, 0.00), (464.00, 6.13), 1.09
M 15.00000 2 (432.29, 43.88, 0.00), (331.66, 9.09), 1.25
M 15.30000 1 (456.19, 4.14, 0.00), (464.00, 6.13), 1.09
M 15.30000 2 (431.94, 43.75, 0.00), (331.66, 9.09), 1.25
M 15.60000 1 (456.51, 4.22, 0.00), (464.00, 6.13), 1.09
M 15.60000 2 (431.58, 43.63, 0.00), (331.66, 9.09), 1.25
M 15.90000 1 (456.83, 4.30, 0.00), (464.00, 6.13), 1.09
M 15.90000 2 (431.23, 43.51, 0.00), (331.66, 9.09), 1.25
N -t 16.000000 -n 0 -e 9999.247392
N -t 16.000000 -n 1 -e 9998.871837
N -t 16.000000 -n 2 -e 9998.942587