n -t 0.000000 -s 1 -x 440.000000 -y 0.000000 -U 1.058379 -V 0.270344 -T 22.678444
n -t 0.000000 -s 2 -x 450.000000 -y 50.000000 -U -1.180702 -V -0.408201 -T 100.224384
n -t * -s 0  -x 500 -y 0 -Z 0 -z 10  -v circle -c green
n -t * -s 1  -x 440 -y 0 -Z 0 -z 10  -v circle -c green
n -t * -s 2  -x 450 -y 50 -Z 0 -z 10  -v circle -c green
n -t * -s 3  -x 500 -y 70 -Z 0 -z 10  -v circle -c green
n -t * -s 4  -x 470 -y 20 -Z 30 -z 10  -v circle -c green
n -t * -s 5  -x 490 -y 10 -Z 40 -z 10  -v circle -c green
V -t * -v 1.0a5 -a 0
W -t * -x 1000 -y 10
A -t * -n 1 -p 0 -o 0xffffffff -c 31 -a 1
A -t * -h 1 -m 2147483647 -s 0
+ -t 1.330025000 -s 1 -d -1 -p vectorbasedforward -e 50 -c 2 -a 0 -i 0 -k MAC 
- -t 1.330025000 -s 1 -d -1 -p vectorbasedforward -e 50 -c 2 -a 0 -i 0 -k MAC
h -t 1.330025000 -s 1 -d -1 -p vectorbasedforward -e 50 -c 2 -a 0 -i 0 -k MAC -R 100.000000
v -t 1.330025000 -e sim_annotation 1.330025000 1 node 1 sendout packet (vectorbasedforward) 0
r -t 1.400599267 -s 4 -d -1 -p vectorbasedforward -e 50 -c 2 -a 0 -i 0 -k MAC -R 100.000000
v -t 1.400599267 -e sim_annotation 1.400599267 2 node 4 receive packet(vectorbasedforward) 0
r -t 1.403089747 -s 2 -d -1 -p vectorbasedforward -e 50 -c 2 -a 0 -i 0 -k MAC -R 100.000000
v -t 1.403089747 -e sim_annotation 1.403089747 3 node 2 receive packet(vectorbasedforward) 0
r -t 1.409087288 -s 0 -d -1 -p vectorbasedforward -e 50 -c 2 -a 0 -i 0 -k MAC -R 100.000000
v -t 1.409087288 -e sim_annotation 1.409087288 4 node 0 receive packet(vectorbasedforward) 0
r -t 1.412473151 -s 5 -d -1 -p vectorbasedforward -e 50 -c 2 -a 0 -i 0 -k MAC -R 100.000000
v -t 1.412473151 -e sim_annotation 1.412473151 5 node 5 receive packet(vectorbasedforward) 0
r -t 1.430698448 -s 3 -d -1 -p vectorbasedforward -e 50 -c 2 -a 0 -i 0 -k MAC -R 100.000000
v -t 1.430698448 -e sim_annotation 1.430698448 6 node 3 receive packet(vectorbasedforward) 0
+ -t 1.830025000 -s 2 -d -1 -p vectorbasedforward -e 50 -c 2 -a 0 -i 1 -k MAC 
- -t 1.830025000 -s 2 -d -1 -p vectorbasedforward -e 50 -c 2 -a 0 -i 1 -k MAC
h -t 1.830025000 -s 2 -d -1 -p vectorbasedforward -e 50 -c 2 -a 0 -i 1 -k MAC -R 100.000000
v -t 1.830025000 -e sim_annotation 1.830025000 7 node 2 sendout packet (vectorbasedforward) 1
r -t 1.901625521 -s 4 -d -1 -p vectorbasedforward -e 50 -c 2 -a 0 -i 1 -k MAC -R 100.000000
v -t 1.901625521 -e sim_annotation 1.901625521 8 node 4 receive packet(vectorbasedforward) 1
r -t 1.902767803 -s 1 -d -1 -p vectorbasedforward -e 50 -c 2 -a 0 -i 1 -k MAC -R 100.000000
v -t 1.902767803 -e sim_annotation 1.902767803 9 node 1 receive packet(vectorbasedforward) 1
r -t 1.907448574 -s 3 -d -1 -p vectorbasedforward -e 50 -c 2 -a 0 -i 1 -k MAC -R 100.000000
v -t 1.907448574 -e sim_annotation 1.907448574 10 node 3 receive packet(vectorbasedforward) 1
r -t 1.916778834 -s 5 -d -1 -p vectorbasedforward -e 50 -c 2 -a 0 -i 1 -k MAC -R 100.000000
v -t 1.916778834 -e sim_annotation 1.916778834 11 node 5 receive packet(vectorbasedforward) 1
r -t 1.917851521 -s 0 -d -1 -p vectorbasedforward -e 50 -c 2 -a 0 -i 1 -k MAC -R 100.000000
v -t 1.917851521 -e sim_annotation 1.917851521 12 node 0 receive packet(vectorbasedforward) 1
+ -t 2.330025000 -s 3 -d -1 -p vectorbasedforward -e 50 -c 2 -a 0 -i 2 -k MAC 
- -t 2.330025000 -s 3 -d -1 -p vectorbasedforward -e 50 -c 2 -a 0 -i 2 -k MAC
h -t 2.330025000 -s 3 -d -1 -p vectorbasedforward -e 50 -c 2 -a 0 -i 2 -k MAC -R 100.000000
v -t 2.330025000 -e sim_annotation 2.330025000 13 node 3 sendout packet (vectorbasedforward) 2
r -t 2.407864569 -s 2 -d -1 -p vectorbasedforward -e 50 -c 2 -a 0 -i 2 -k MAC -R 100.000000
v -t 2.407864569 -e sim_annotation 2.407864569 14 node 2 receive packet(vectorbasedforward) 2
r -t 2.413741257 -s 4 -d -1 -p vectorbasedforward -e 50 -c 2 -a 0 -i 2 -k MAC -R 100.000000
v -t 2.413741257 -e sim_annotation 2.413741257 15 node 4 receive packet(vectorbasedforward) 2
r -t 2.416691667 -s 0 -d -1 -p vectorbasedforward -e 50 -c 2 -a 0 -i 2 -k MAC -R 100.000000
v -t 2.416691667 -e sim_annotation 2.416691667 16 node 0 receive packet(vectorbasedforward) 2
r -t 2.418559066 -s 5 -d -1 -p vectorbasedforward -e 50 -c 2 -a 0 -i 2 -k MAC -R 100.000000
v -t 2.418559066 -e sim_annotation 2.418559066 17 node 5 receive packet(vectorbasedforward) 2
r -t 2.430107777 -s 1 -d -1 -p vectorbasedforward -e 50 -c 2 -a 0 -i 2 -k MAC -R 100.000000
v -t 2.430107777 -e sim_annotation 2.430107777 18 node 1 receive packet(vectorbasedforward) 2
+ -t 2.830025000 -s 4 -d -1 -p vectorbasedforward -e 50 -c 2 -a 0 -i 3 -k MAC 
- -t 2.830025000 -s 4 -d -1 -p vectorbasedforward -e 50 -c 2 -a 0 -i 3 -k MAC
h -t 2.830025000 -s 4 -d -1 -p vectorbasedforward -e 50 -c 2 -a 0 -i 3 -k MAC -R 100.000000
v -t 2.830025000 -e sim_annotation 2.830025000 19 node 4 sendout packet (vectorbasedforward) 3
r -t 2.886354932 -s 5 -d -1 -p vectorbasedforward -e 50 -c 2 -a 0 -i 3 -k MAC -R 100.000000
v -t 2.886354932 -e sim_annotation 2.886354932 20 node 5 receive packet(vectorbasedforward) 3
r -t 2.899833569 -s 1 -d -1 -p vectorbasedforward -e 50 -c 2 -a 0 -i 3 -k MAC -R 100.000000
v -t 2.899833569 -e sim_annotation 2.899833569 21 node 1 receive packet(vectorbasedforward) 3
r -t 2.901294438 -s 0 -d -1 -p vectorbasedforward -e 50 -c 2 -a 0 -i 3 -k MAC -R 100.000000
v -t 2.901294438 -e sim_annotation 2.901294438 22 node 0 receive packet(vectorbasedforward) 3
r -t 2.901835850 -s 2 -d -1 -p vectorbasedforward -e 50 -c 2 -a 0 -i 3 -k MAC -R 100.000000
v -t 2.901835850 -e sim_annotation 2.901835850 23 node 2 receive packet(vectorbasedforward) 3
r -t 2.913741257 -s 3 -d -1 -p vectorbasedforward -e 50 -c 2 -a 0 -i 3 -k MAC -R 100.000000
v -t 2.913741257 -e sim_annotation 2.913741257 24 node 3 receive packet(vectorbasedforward) 3
+ -t 3.135760120 -s 1 -d -1 -p vectorbasedforward -e 50 -c 2 -a 0 -i 1 -k MAC 
- -t 3.135760120 -s 1 -d -1 -p vectorbasedforward -e 50 -c 2 -a 0 -i 1 -k MAC
h -t 3.135760120 -s 1 -d -1 -p vectorbasedforward -e 50 -c 2 -a 0 -i 1 -k MAC -R 100.000000
v -t 3.135760120 -e sim_annotation 3.135760120 25 node 1 sendout packet (vectorbasedforward) 1
r -t 3.205415133 -s 4 -d -1 -p vectorbasedforward -e 50 -c 2 -a 0 -i 1 -k MAC -R 100.000000
v -t 3.205415133 -e sim_annotation 3.205415133 26 node 4 receive packet(vectorbasedforward) 1
r -t 3.207736674 -s 2 -d -1 -p vectorbasedforward -e 50 -c 2 -a 0 -i 1 -k MAC -R 100.000000
v -t 3.207736674 -e sim_annotation 3.207736674 27 node 2 receive packet(vectorbasedforward) 1
r -t 3.213551797 -s 0 -d -1 -p vectorbasedforward -e 50 -c 2 -a 0 -i 1 -k MAC -R 100.000000
v -t 3.213551797 -e sim_annotation 3.213551797 28 node 0 receive packet(vectorbasedforward) 1
r -t 3.217194921 -s 5 -d -1 -p vectorbasedforward -e 50 -c 2 -a 0 -i 1 -k MAC -R 100.000000
v -t 3.217194921 -e sim_annotation 3.217194921 29 node 5 receive packet(vectorbasedforward) 1
+ -t 3.226292170 -s 2 -d -1 -p vectorbasedforward -e 50 -c 2 -a 0 -i 2 -k MAC 
- -t 3.226292170 -s 2 -d -1 -p vectorbasedforward -e 50 -c 2 -a 0 -i 2 -k MAC
h -t 3.226292170 -s 2 -d -1 -p vectorbasedforward -e 50 -c 2 -a 0 -i 2 -k MAC -R 100.000000
v -t 3.226292170 -e sim_annotation 3.226292170 30 node 2 sendout packet (vectorbasedforward) 2
r -t 3.235369187 -s 3 -d -1 -p vectorbasedforward -e 50 -c 2 -a 0 -i 1 -k MAC -R 100.000000
v -t 3.235369187 -e sim_annotation 3.235369187 31 node 3 receive packet(vectorbasedforward) 1
r -t 3.298191999 -s 4 -d -1 -p vectorbasedforward -e 50 -c 2 -a 0 -i 2 -k MAC -R 100.000000
v -t 3.298191999 -e sim_annotation 3.298191999 32 node 4 receive packet(vectorbasedforward) 2
r -t 3.298219731 -s 1 -d -1 -p vectorbasedforward -e 50 -c 2 -a 0 -i 2 -k MAC -R 100.000000
v -t 3.298219731 -e sim_annotation 3.298219731 33 node 1 receive packet(vectorbasedforward) 2
r -t 3.304877446 -s 3 -d -1 -p vectorbasedforward -e 50 -c 2 -a 0 -i 2 -k MAC -R 100.000000
v -t 3.304877446 -e sim_annotation 3.304877446 34 node 3 receive packet(vectorbasedforward) 2
r -t 3.313506245 -s 5 -d -1 -p vectorbasedforward -e 50 -c 2 -a 0 -i 2 -k MAC -R 100.000000
v -t 3.313506245 -e sim_annotation 3.313506245 35 node 5 receive packet(vectorbasedforward) 2
r -t 3.314667904 -s 0 -d -1 -p vectorbasedforward -e 50 -c 2 -a 0 -i 2 -k MAC -R 100.000000
v -t 3.314667904 -e sim_annotation 3.314667904 36 node 0 receive packet(vectorbasedforward) 2
+ -t 3.330025000 -s 5 -d -1 -p vectorbasedforward -e 50 -c 2 -a 0 -i 4 -k MAC 
- -t 3.330025000 -s 5 -d -1 -p vectorbasedforward -e 50 -c 2 -a 0 -i 4 -k MAC
h -t 3.330025000 -s 5 -d -1 -p vectorbasedforward -e 50 -c 2 -a 0 -i 4 -k MAC -R 100.000000
v -t 3.330025000 -e sim_annotation 3.330025000 37 node 5 sendout packet (vectorbasedforward) 4
r -t 3.386354932 -s 4 -d -1 -p vectorbasedforward -e 50 -c 2 -a 0 -i 4 -k MAC -R 100.000000
v -t 3.386354932 -e sim_annotation 3.386354932 38 node 4 receive packet(vectorbasedforward) 4
r -t 3.398309271 -s 0 -d -1 -p vectorbasedforward -e 50 -c 2 -a 0 -i 4 -k MAC -R 100.000000
v -t 3.398309271 -e sim_annotation 3.398309271 39 node 0 receive packet(vectorbasedforward) 4
r -t 3.411351796 -s 1 -d -1 -p vectorbasedforward -e 50 -c 2 -a 0 -i 4 -k MAC -R 100.000000
v -t 3.411351796 -e sim_annotation 3.411351796 40 node 1 receive packet(vectorbasedforward) 4
r -t 3.417274231 -s 2 -d -1 -p vectorbasedforward -e 50 -c 2 -a 0 -i 4 -k MAC -R 100.000000
v -t 3.417274231 -e sim_annotation 3.417274231 41 node 2 receive packet(vectorbasedforward) 4
r -t 3.418559066 -s 3 -d -1 -p vectorbasedforward -e 50 -c 2 -a 0 -i 4 -k MAC -R 100.000000
v -t 3.418559066 -e sim_annotation 3.418559066 42 node 3 receive packet(vectorbasedforward) 4
+ -t 3.978640634 -s 1 -d -1 -p vectorbasedforward -e 50 -c 2 -a 0 -i 3 -k MAC 
- -t 3.978640634 -s 1 -d -1 -p vectorbasedforward -e 50 -c 2 -a 0 -i 3 -k MAC
h -t 3.978640634 -s 1 -d -1 -p vectorbasedforward -e 50 -c 2 -a 0 -i 3 -k MAC -R 100.000000
v -t 3.978640634 -e sim_annotation 3.978640634 43 node 1 sendout packet (vectorbasedforward) 3
r -t 4.047876913 -s 4 -d -1 -p vectorbasedforward -e 50 -c 2 -a 0 -i 3 -k MAC -R 100.000000
v -t 4.047876913 -e sim_annotation 4.047876913 44 node 4 receive packet(vectorbasedforward) 3
r -t 4.050182570 -s 2 -d -1 -p vectorbasedforward -e 50 -c 2 -a 0 -i 3 -k MAC -R 100.000000
v -t 4.050182570 -e sim_annotation 4.050182570 45 node 2 receive packet(vectorbasedforward) 3
r -t 4.055840272 -s 0 -d -1 -p vectorbasedforward -e 50 -c 2 -a 0 -i 3 -k MAC -R 100.000000
v -t 4.055840272 -e sim_annotation 4.055840272 46 node 0 receive packet(vectorbasedforward) 3
r -t 4.059608294 -s 5 -d -1 -p vectorbasedforward -e 50 -c 2 -a 0 -i 3 -k MAC -R 100.000000
v -t 4.059608294 -e sim_annotation 4.059608294 47 node 5 receive packet(vectorbasedforward) 3
r -t 4.077756322 -s 3 -d -1 -p vectorbasedforward -e 50 -c 2 -a 0 -i 3 -k MAC -R 100.000000
v -t 4.077756322 -e sim_annotation 4.077756322 48 node 3 receive packet(vectorbasedforward) 3
+ -t 4.584429037 -s 1 -d -1 -p vectorbasedforward -e 50 -c 2 -a 0 -i 4 -k MAC 
- -t 4.584429037 -s 1 -d -1 -p vectorbasedforward -e 50 -c 2 -a 0 -i 4 -k MAC
h -t 4.584429037 -s 1 -d -1 -p vectorbasedforward -e 50 -c 2 -a 0 -i 4 -k MAC -R 100.000000
v -t 4.584429037 -e sim_annotation 4.584429037 49 node 1 sendout packet (vectorbasedforward) 4
+ -t 4.591724086 -s 4 -d -1 -p vectorbasedforward -e 50 -c 2 -a 0 -i 4 -k MAC 
- -t 4.591724086 -s 4 -d -1 -p vectorbasedforward -e 50 -c 2 -a 0 -i 4 -k MAC
h -t 4.591724086 -s 4 -d -1 -p vectorbasedforward -e 50 -c 2 -a 0 -i 4 -k MAC -R 100.000000
v -t 4.591724086 -e sim_annotation 4.591724086 50 node 4 sendout packet (vectorbasedforward) 4
d -t 4.648054018 -s 5 -d -1 -p vectorbasedforward -e 50 -c 2 -a 0 -i 4 -k MAC
v -t 4.648054018 -e sim_annotation 4.648054018 51 node 5 drop packet(vectorbasedforward) 4
r -t 4.653368666 -s 4 -d -1 -p vectorbasedforward -e 50 -c 2 -a 0 -i 4 -k MAC -R 100.000000
v -t 4.653368666 -e sim_annotation 4.653368666 52 node 4 receive packet(vectorbasedforward) 4
d -t 4.655689041 -s 2 -d -1 -p vectorbasedforward -e 50 -c 2 -a 0 -i 4 -k MAC
v -t 4.655689041 -e sim_annotation 4.655689041 53 node 2 drop packet(vectorbasedforward) 4
r -t 4.660660166 -s 1 -d -1 -p vectorbasedforward -e 50 -c 2 -a 0 -i 4 -k MAC -R 100.000000
v -t 4.660660166 -e sim_annotation 4.660660166 54 node 1 receive packet(vectorbasedforward) 4
d -t 4.661203610 -s 0 -d -1 -p vectorbasedforward -e 50 -c 2 -a 0 -i 4 -k MAC
v -t 4.661203610 -e sim_annotation 4.661203610 55 node 0 drop packet(vectorbasedforward) 4
d -t 4.662993524 -s 0 -d -1 -p vectorbasedforward -e 50 -c 2 -a 0 -i 4 -k MAC
v -t 4.662993524 -e sim_annotation 4.662993524 56 node 0 drop packet(vectorbasedforward) 4
d -t 4.663954525 -s 2 -d -1 -p vectorbasedforward -e 50 -c 2 -a 0 -i 4 -k MAC
v -t 4.663954525 -e sim_annotation 4.663954525 57 node 2 drop packet(vectorbasedforward) 4
d -t 4.665063367 -s 5 -d -1 -p vectorbasedforward -e 50 -c 2 -a 0 -i 4 -k MAC
v -t 4.665063367 -e sim_annotation 4.665063367 58 node 5 drop packet(vectorbasedforward) 4
d -t 4.675440343 -s 3 -d -1 -p vectorbasedforward -e 50 -c 2 -a 0 -i 4 -k MAC
v -t 4.675440343 -e sim_annotation 4.675440343 59 node 3 drop packet(vectorbasedforward) 4
d -t 4.683191530 -s 3 -d -1 -p vectorbasedforward -e 50 -c 2 -a 0 -i 4 -k MAC
v -t 4.683191530 -e sim_annotation 4.683191530 60 node 3 drop packet(vectorbasedforward) 4
+ -t 4.716182710 -s 3 -d -1 -p vectorbasedforward -e 50 -c 2 -a 0 -i 4 -k MAC 
- -t 4.716182710 -s 3 -d -1 -p vectorbasedforward -e 50 -c 2 -a 0 -i 4 -k MAC
h -t 4.716182710 -s 3 -d -1 -p vectorbasedforward -e 50 -c 2 -a 0 -i 4 -k MAC -R 100.000000
v -t 4.716182710 -e sim_annotation 4.716182710 61 node 3 sendout packet (vectorbasedforward) 4
r -t 4.796007660 -s 2 -d -1 -p vectorbasedforward -e 50 -c 2 -a 0 -i 4 -k MAC -R 100.000000
v -t 4.796007660 -e sim_annotation 4.796007660 62 node 2 receive packet(vectorbasedforward) 4
r -t 4.799898967 -s 4 -d -1 -p vectorbasedforward -e 50 -c 2 -a 0 -i 4 -k MAC -R 100.000000
v -t 4.799898967 -e sim_annotation 4.799898967 63 node 4 receive packet(vectorbasedforward) 4
r -t 4.802849377 -s 0 -d -1 -p vectorbasedforward -e 50 -c 2 -a 0 -i 4 -k MAC -R 100.000000
v -t 4.802849377 -e sim_annotation 4.802849377 64 node 0 receive packet(vectorbasedforward) 4
r -t 4.804716776 -s 5 -d -1 -p vectorbasedforward -e 50 -c 2 -a 0 -i 4 -k MAC -R 100.000000
v -t 4.804716776 -e sim_annotation 4.804716776 65 node 5 receive packet(vectorbasedforward) 4
r -t 4.814868544 -s 1 -d -1 -p vectorbasedforward -e 50 -c 2 -a 0 -i 4 -k MAC -R 100.000000
v -t 4.814868544 -e sim_annotation 4.814868544 66 node 1 receive packet(vectorbasedforward) 4
+ -t 11.330025000 -s 1 -d -1 -p vectorbasedforward -e 50 -c 2 -a 0 -i 5 -k MAC 
- -t 11.330025000 -s 1 -d -1 -p vectorbasedforward -e 50 -c 2 -a 0 -i 5 -k MAC
h -t 11.330025000 -s 1 -d -1 -p vectorbasedforward -e 50 -c 2 -a 0 -i 5 -k MAC -R 100.000000
v -t 11.330025000 -e sim_annotation 11.330025000 67 node 1 sendout packet (vectorbasedforward) 5
r -t 11.395940842 -s 4 -d -1 -p vectorbasedforward -e 50 -c 2 -a 0 -i 5 -k MAC -R 100.000000
v -t 11.395940842 -e sim_annotation 11.395940842 68 node 4 receive packet(vectorbasedforward) 5
r -t 11.400036200 -s 2 -d -1 -p vectorbasedforward -e 50 -c 2 -a 0 -i 5 -k MAC -R 100.000000
v -t 11.400036200 -e sim_annotation 11.400036200 69 node 2 receive packet(vectorbasedforward) 5
r -t 11.402095766 -s 0 -d -1 -p vectorbasedforward -e 50 -c 2 -a 0 -i 5 -k MAC -R 100.000000
v -t 11.402095766 -e sim_annotation 11.402095766 70 node 0 receive packet(vectorbasedforward) 5
r -t 11.407100124 -s 5 -d -1 -p vectorbasedforward -e 50 -c 2 -a 0 -i 5 -k MAC -R 100.000000
v -t 11.407100124 -e sim_annotation 11.407100124 71 node 5 receive packet(vectorbasedforward) 5
r -t 11.424940619 -s 3 -d -1 -p vectorbasedforward -e 50 -c 2 -a 0 -i 5 -k MAC -R 100.000000
v -t 11.424940619 -e sim_annotation 11.424940619 72 node 3 receive packet(vectorbasedforward) 5
+ -t 11.830025000 -s 2 -d -1 -p vectorbasedforward -e 50 -c 2 -a 0 -i 6 -k MAC 
- -t 11.830025000 -s 2 -d -1 -p vectorbasedforward -e 50 -c 2 -a 0 -i 6 -k MAC
h -t 11.830025000 -s 2 -d -1 -p vectorbasedforward -e 50 -c 2 -a 0 -i 6 -k MAC -R 100.000000
v -t 11.830025000 -e sim_annotation 11.830025000 73 node 2 sendout packet (vectorbasedforward) 6
r -t 11.900088505 -s 1 -d -1 -p vectorbasedforward -e 50 -c 2 -a 0 -i 6 -k MAC -R 100.000000
v -t 11.900088505 -e sim_annotation 11.900088505 74 node 1 receive packet(vectorbasedforward) 6
r -t 11.904584991 -s 4 -d -1 -p vectorbasedforward -e 50 -c 2 -a 0 -i 6 -k MAC -R 100.000000
v -t 11.904584991 -e sim_annotation 11.904584991 75 node 4 receive packet(vectorbasedforward) 6
r -t 11.915769951 -s 3 -d -1 -p vectorbasedforward -e 50 -c 2 -a 0 -i 6 -k MAC -R 100.000000
v -t 11.915769951 -e sim_annotation 11.915769951 76 node 3 receive packet(vectorbasedforward) 6
r -t 11.920575361 -s 5 -d -1 -p vectorbasedforward -e 50 -c 2 -a 0 -i 6 -k MAC -R 100.000000
v -t 11.920575361 -e sim_annotation 11.920575361 77 node 5 receive packet(vectorbasedforward) 6
r -t 11.922230945 -s 0 -d -1 -p vectorbasedforward -e 50 -c 2 -a 0 -i 6 -k MAC -R 100.000000
v -t 11.922230945 -e sim_annotation 11.922230945 78 node 0 receive packet(vectorbasedforward) 6
+ -t 12.330025000 -s 3 -d -1 -p vectorbasedforward -e 50 -c 2 -a 0 -i 7 -k MAC 
- -t 12.330025000 -s 3 -d -1 -p vectorbasedforward -e 50 -c 2 -a 0 -i 7 -k MAC
h -t 12.330025000 -s 3 -d -1 -p vectorbasedforward -e 50 -c 2 -a 0 -i 7 -k MAC -R 100.000000
v -t 12.330025000 -e sim_annotation 12.330025000 79 node 3 sendout packet (vectorbasedforward) 7
r -t 12.413741257 -s 4 -d -1 -p vectorbasedforward -e 50 -c 2 -a 0 -i 7 -k MAC -R 100.000000
v -t 12.413741257 -e sim_annotation 12.413741257 80 node 4 receive packet(vectorbasedforward) 7
r -t 12.416186088 -s 2 -d -1 -p vectorbasedforward -e 50 -c 2 -a 0 -i 7 -k MAC -R 100.000000
v -t 12.416186088 -e sim_annotation 12.416186088 81 node 2 receive packet(vectorbasedforward) 7
r -t 12.416691667 -s 0 -d -1 -p vectorbasedforward -e 50 -c 2 -a 0 -i 7 -k MAC -R 100.000000
v -t 12.416691667 -e sim_annotation 12.416691667 82 node 0 receive packet(vectorbasedforward) 7
r -t 12.418559066 -s 5 -d -1 -p vectorbasedforward -e 50 -c 2 -a 0 -i 7 -k MAC -R 100.000000
v -t 12.418559066 -e sim_annotation 12.418559066 83 node 5 receive packet(vectorbasedforward) 7
r -t 12.424384955 -s 1 -d -1 -p vectorbasedforward -e 50 -c 2 -a 0 -i 7 -k MAC -R 100.000000
v -t 12.424384955 -e sim_annotation 12.424384955 84 node 1 receive packet(vectorbasedforward) 7
+ -t 12.618220856 -s 2 -d -1 -p vectorbasedforward -e 50 -c 2 -a 0 -i 5 -k MAC 
- -t 12.618220856 -s 2 -d -1 -p vectorbasedforward -e 50 -c 2 -a 0 -i 5 -k MAC
h -t 12.618220856 -s 2 -d -1 -p vectorbasedforward -e 50 -c 2 -a 0 -i 5 -k MAC -R 100.000000
v -t 12.618220856 -e sim_annotation 12.618220856 85 node 2 sendout packet (vectorbasedforward) 5
r -t 12.688407572 -s 1 -d -1 -p vectorbasedforward -e 50 -c 2 -a 0 -i 5 -k MAC -R 100.000000
v -t 12.688407572 -e sim_annotation 12.688407572 86 node 1 receive packet(vectorbasedforward) 5
r -t 12.693088090 -s 4 -d -1 -p vectorbasedforward -e 50 -c 2 -a 0 -i 5 -k MAC -R 100.000000
v -t 12.693088090 -e sim_annotation 12.693088090 87 node 4 receive packet(vectorbasedforward) 5
r -t 12.704621803 -s 3 -d -1 -p vectorbasedforward -e 50 -c 2 -a 0 -i 5 -k MAC -R 100.000000
v -t 12.704621803 -e sim_annotation 12.704621803 88 node 3 receive packet(vectorbasedforward) 5
r -t 12.709116381 -s 5 -d -1 -p vectorbasedforward -e 50 -c 2 -a 0 -i 5 -k MAC -R 100.000000
v -t 12.709116381 -e sim_annotation 12.709116381 89 node 5 receive packet(vectorbasedforward) 5
r -t 12.710812571 -s 0 -d -1 -p vectorbasedforward -e 50 -c 2 -a 0 -i 5 -k MAC -R 100.000000
v -t 12.710812571 -e sim_annotation 12.710812571 90 node 0 receive packet(vectorbasedforward) 5
+ -t 12.830025000 -s 4 -d -1 -p vectorbasedforward -e 50 -c 2 -a 0 -i 8 -k MAC 
- -t 12.830025000 -s 4 -d -1 -p vectorbasedforward -e 50 -c 2 -a 0 -i 8 -k MAC
h -t 12.830025000 -s 4 -d -1 -p vectorbasedforward -e 50 -c 2 -a 0 -i 8 -k MAC -R 100.000000
v -t 12.830025000 -e sim_annotation 12.830025000 91 node 4 sendout packet (vectorbasedforward) 8
r -t 12.886354932 -s 5 -d -1 -p vectorbasedforward -e 50 -c 2 -a 0 -i 8 -k MAC -R 100.000000
v -t 12.886354932 -e sim_annotation 12.886354932 92 node 5 receive packet(vectorbasedforward) 8
r -t 12.895349018 -s 1 -d -1 -p vectorbasedforward -e 50 -c 2 -a 0 -i 8 -k MAC -R 100.000000
v -t 12.895349018 -e sim_annotation 12.895349018 93 node 1 receive packet(vectorbasedforward) 8
r -t 12.901294438 -s 0 -d -1 -p vectorbasedforward -e 50 -c 2 -a 0 -i 8 -k MAC -R 100.000000
v -t 12.901294438 -e sim_annotation 12.901294438 94 node 0 receive packet(vectorbasedforward) 8
r -t 12.904976437 -s 2 -d -1 -p vectorbasedforward -e 50 -c 2 -a 0 -i 8 -k MAC -R 100.000000
v -t 12.904976437 -e sim_annotation 12.904976437 95 node 2 receive packet(vectorbasedforward) 8
r -t 12.913741257 -s 3 -d -1 -p vectorbasedforward -e 50 -c 2 -a 0 -i 8 -k MAC -R 100.000000
v -t 12.913741257 -e sim_annotation 12.913741257 96 node 3 receive packet(vectorbasedforward) 8
+ -t 13.147483946 -s 2 -d -1 -p vectorbasedforward -e 50 -c 2 -a 0 -i 7 -k MAC 
- -t 13.147483946 -s 2 -d -1 -p vectorbasedforward -e 50 -c 2 -a 0 -i 7 -k MAC
h -t 13.147483946 -s 2 -d -1 -p vectorbasedforward -e 50 -c 2 -a 0 -i 7 -k MAC -R 100.000000
v -t 13.147483946 -e sim_annotation 13.147483946 97 node 2 sendout packet (vectorbasedforward) 7
r -t 13.217781124 -s 1 -d -1 -p vectorbasedforward -e 50 -c 2 -a 0 -i 7 -k MAC -R 100.000000
v -t 13.217781124 -e sim_annotation 13.217781124 98 node 1 receive packet(vectorbasedforward) 7
r -t 13.222562874 -s 4 -d -1 -p vectorbasedforward -e 50 -c 2 -a 0 -i 7 -k MAC -R 100.000000
v -t 13.222562874 -e sim_annotation 13.222562874 99 node 4 receive packet(vectorbasedforward) 7
r -t 13.234325394 -s 3 -d -1 -p vectorbasedforward -e 50 -c 2 -a 0 -i 7 -k MAC -R 100.000000
v -t 13.234325394 -e sim_annotation 13.234325394 100 node 3 receive packet(vectorbasedforward) 7
r -t 13.238614667 -s 5 -d -1 -p vectorbasedforward -e 50 -c 2 -a 0 -i 7 -k MAC -R 100.000000
v -t 13.238614667 -e sim_annotation 13.238614667 101 node 5 receive packet(vectorbasedforward) 7
r -t 13.240337696 -s 0 -d -1 -p vectorbasedforward -e 50 -c 2 -a 0 -i 7 -k MAC -R 100.000000
v -t 13.240337696 -e sim_annotation 13.240337696 102 node 0 receive packet(vectorbasedforward) 7
+ -t 13.330025000 -s 5 -d -1 -p vectorbasedforward -e 50 -c 2 -a 0 -i 9 -k MAC 
- -t 13.330025000 -s 5 -d -1 -p vectorbasedforward -e 50 -c 2 -a 0 -i 9 -k MAC
h -t 13.330025000 -s 5 -d -1 -p vectorbasedforward -e 50 -c 2 -a 0 -i 9 -k MAC -R 100.000000
v -t 13.330025000 -e sim_annotation 13.330025000 103 node 5 sendout packet (vectorbasedforward) 9
r -t 13.386354932 -s 4 -d -1 -p vectorbasedforward -e 50 -c 2 -a 0 -i 9 -k MAC -R 100.000000
v -t 13.386354932 -e sim_annotation 13.386354932 104 node 4 receive packet(vectorbasedforward) 9
r -t 13.398309271 -s 0 -d -1 -p vectorbasedforward -e 50 -c 2 -a 0 -i 9 -k MAC -R 100.000000
v -t 13.398309271 -e sim_annotation 13.398309271 105 node 0 receive packet(vectorbasedforward) 9
r -t 13.406105974 -s 1 -d -1 -p vectorbasedforward -e 50 -c 2 -a 0 -i 9 -k MAC -R 100.000000
v -t 13.406105974 -e sim_annotation 13.406105974 106 node 1 receive packet(vectorbasedforward) 9
r -t 13.418559066 -s 3 -d -1 -p vectorbasedforward -e 50 -c 2 -a 0 -i 9 -k MAC -R 100.000000
v -t 13.418559066 -e sim_annotation 13.418559066 107 node 3 receive packet(vectorbasedforward) 9
r -t 13.421237468 -s 2 -d -1 -p vectorbasedforward -e 50 -c 2 -a 0 -i 9 -k MAC -R 100.000000
v -t 13.421237468 -e sim_annotation 13.421237468 108 node 2 receive packet(vectorbasedforward) 9
+ -t 13.976064643 -s 2 -d -1 -p vectorbasedforward -e 50 -c 2 -a 0 -i 8 -k MAC 
- -t 13.976064643 -s 2 -d -1 -p vectorbasedforward -e 50 -c 2 -a 0 -i 8 -k MAC
h -t 13.976064643 -s 2 -d -1 -p vectorbasedforward -e 50 -c 2 -a 0 -i 8 -k MAC -R 100.000000
v -t 13.976064643 -e sim_annotation 13.976064643 109 node 2 sendout packet (vectorbasedforward) 8
r -t 14.046578833 -s 1 -d -1 -p vectorbasedforward -e 50 -c 2 -a 0 -i 8 -k MAC -R 100.000000
v -t 14.046578833 -e sim_annotation 14.046578833 110 node 1 receive packet(vectorbasedforward) 8
r -t 14.051483462 -s 4 -d -1 -p vectorbasedforward -e 50 -c 2 -a 0 -i 8 -k MAC -R 100.000000
v -t 14.051483462 -e sim_annotation 14.051483462 111 node 4 receive packet(vectorbasedforward) 8
+ -t 14.056646794 -s 1 -d -1 -p vectorbasedforward -e 50 -c 2 -a 0 -i 8 -k MAC 
- -t 14.056646794 -s 1 -d -1 -p vectorbasedforward -e 50 -c 2 -a 0 -i 8 -k MAC
h -t 14.056646794 -s 1 -d -1 -p vectorbasedforward -e 50 -c 2 -a 0 -i 8 -k MAC -R 100.000000
v -t 14.056646794 -e sim_annotation 14.056646794 112 node 1 sendout packet (vectorbasedforward) 8
r -t 14.063595720 -s 3 -d -1 -p vectorbasedforward -e 50 -c 2 -a 0 -i 8 -k MAC -R 100.000000
v -t 14.063595720 -e sim_annotation 14.063595720 113 node 3 receive packet(vectorbasedforward) 8
r -t 14.067568991 -s 5 -d -1 -p vectorbasedforward -e 50 -c 2 -a 0 -i 8 -k MAC -R 100.000000
v -t 14.067568991 -e sim_annotation 14.067568991 114 node 5 receive packet(vectorbasedforward) 8
r -t 14.069333355 -s 0 -d -1 -p vectorbasedforward -e 50 -c 2 -a 0 -i 8 -k MAC -R 100.000000
v -t 14.069333355 -e sim_annotation 14.069333355 115 node 0 receive packet(vectorbasedforward) 8
r -t 14.121512059 -s 4 -d -1 -p vectorbasedforward -e 50 -c 2 -a 0 -i 8 -k MAC -R 100.000000
v -t 14.121512059 -e sim_annotation 14.121512059 116 node 4 receive packet(vectorbasedforward) 8
r -t 14.126835110 -s 0 -d -1 -p vectorbasedforward -e 50 -c 2 -a 0 -i 8 -k MAC -R 100.000000
v -t 14.126835110 -e sim_annotation 14.126835110 117 node 0 receive packet(vectorbasedforward) 8
r -t 14.127184925 -s 2 -d -1 -p vectorbasedforward -e 50 -c 2 -a 0 -i 8 -k MAC -R 100.000000
v -t 14.127184925 -e sim_annotation 14.127184925 118 node 2 receive packet(vectorbasedforward) 8
r -t 14.132374438 -s 5 -d -1 -p vectorbasedforward -e 50 -c 2 -a 0 -i 8 -k MAC -R 100.000000
v -t 14.132374438 -e sim_annotation 14.132374438 119 node 5 receive packet(vectorbasedforward) 8
r -t 14.150057093 -s 3 -d -1 -p vectorbasedforward -e 50 -c 2 -a 0 -i 8 -k MAC -R 100.000000
v -t 14.150057093 -e sim_annotation 14.150057093 120 node 3 receive packet(vectorbasedforward) 8
+ -t 14.534565198 -s 1 -d -1 -p vectorbasedforward -e 50 -c 2 -a 0 -i 9 -k MAC 
- -t 14.534565198 -s 1 -d -1 -p vectorbasedforward -e 50 -c 2 -a 0 -i 9 -k MAC
h -t 14.534565198 -s 1 -d -1 -p vectorbasedforward -e 50 -c 2 -a 0 -i 9 -k MAC -R 100.000000
v -t 14.534565198 -e sim_annotation 14.534565198 121 node 1 sendout packet (vectorbasedforward) 9
r -t 14.599258165 -s 4 -d -1 -p vectorbasedforward -e 50 -c 2 -a 0 -i 9 -k MAC -R 100.000000
v -t 14.599258165 -e sim_annotation 14.599258165 122 node 4 receive packet(vectorbasedforward) 9
r -t 14.604424937 -s 0 -d -1 -p vectorbasedforward -e 50 -c 2 -a 0 -i 9 -k MAC -R 100.000000
v -t 14.604424937 -e sim_annotation 14.604424937 123 node 0 receive packet(vectorbasedforward) 9
r -t 14.605255517 -s 2 -d -1 -p vectorbasedforward -e 50 -c 2 -a 0 -i 9 -k MAC -R 100.000000
v -t 14.605255517 -e sim_annotation 14.605255517 124 node 2 receive packet(vectorbasedforward) 9
r -t 14.610062830 -s 5 -d -1 -p vectorbasedforward -e 50 -c 2 -a 0 -i 9 -k MAC -R 100.000000
v -t 14.610062830 -e sim_annotation 14.610062830 125 node 5 receive packet(vectorbasedforward) 9
r -t 14.627714896 -s 3 -d -1 -p vectorbasedforward -e 50 -c 2 -a 0 -i 9 -k MAC -R 100.000000
v -t 14.627714896 -e sim_annotation 14.627714896 126 node 3 receive packet(vectorbasedforward) 9
+ -t 14.672503861 -s 4 -d -1 -p vectorbasedforward -e 50 -c 2 -a 0 -i 9 -k MAC 
- -t 14.672503861 -s 4 -d -1 -p vectorbasedforward -e 50 -c 2 -a 0 -i 9 -k MAC
h -t 14.672503861 -s 4 -d -1 -p vectorbasedforward -e 50 -c 2 -a 0 -i 9 -k MAC -R 100.000000
v -t 14.672503861 -e sim_annotation 14.672503861 127 node 4 sendout packet (vectorbasedforward) 9
r -t 14.728833793 -s 5 -d -1 -p vectorbasedforward -e 50 -c 2 -a 0 -i 9 -k MAC -R 100.000000
v -t 14.728833793 -e sim_annotation 14.728833793 128 node 5 receive packet(vectorbasedforward) 9
r -t 14.737147788 -s 1 -d -1 -p vectorbasedforward -e 50 -c 2 -a 0 -i 9 -k MAC -R 100.000000
v -t 14.737147788 -e sim_annotation 14.737147788 129 node 1 receive packet(vectorbasedforward) 9
r -t 14.743773299 -s 0 -d -1 -p vectorbasedforward -e 50 -c 2 -a 0 -i 9 -k MAC -R 100.000000
v -t 14.743773299 -e sim_annotation 14.743773299 130 node 0 receive packet(vectorbasedforward) 9
r -t 14.748216178 -s 2 -d -1 -p vectorbasedforward -e 50 -c 2 -a 0 -i 9 -k MAC -R 100.000000
v -t 14.748216178 -e sim_annotation 14.748216178 131 node 2 receive packet(vectorbasedforward) 9
r -t 14.756220118 -s 3 -d -1 -p vectorbasedforward -e 50 -c 2 -a 0 -i 9 -k MAC -R 100.000000
v -t 14.756220118 -e sim_annotation 14.756220118 132 node 3 receive packet(vectorbasedforward) 9
+ -t 21.330025000 -s 1 -d -1 -p vectorbasedforward -e 50 -c 2 -a 0 -i 10 -k MAC 
- -t 21.330025000 -s 1 -d -1 -p vectorbasedforward -e 50 -c 2 -a 0 -i 10 -k MAC
h -t 21.330025000 -s 1 -d -1 -p vectorbasedforward -e 50 -c 2 -a 0 -i 10 -k MAC -R 100.000000
v -t 21.330025000 -e sim_annotation 21.330025000 133 node 1 sendout packet (vectorbasedforward) 10
r -t 21.392708535 -s 4 -d -1 -p vectorbasedforward -e 50 -c 2 -a 0 -i 10 -k MAC -R 100.000000
v -t 21.392708535 -e sim_annotation 21.392708535 134 node 4 receive packet(vectorbasedforward) 10
r -t 21.395269259 -s 0 -d -1 -p vectorbasedforward -e 50 -c 2 -a 0 -i 10 -k MAC -R 100.000000
v -t 21.395269259 -e sim_annotation 21.395269259 135 node 0 receive packet(vectorbasedforward) 10
r -t 21.402480369 -s 5 -d -1 -p vectorbasedforward -e 50 -c 2 -a 0 -i 10 -k MAC -R 100.000000
v -t 21.402480369 -e sim_annotation 21.402480369 136 node 5 receive packet(vectorbasedforward) 10
r -t 21.404588510 -s 2 -d -1 -p vectorbasedforward -e 50 -c 2 -a 0 -i 10 -k MAC -R 100.000000
v -t 21.404588510 -e sim_annotation 21.404588510 137 node 2 receive packet(vectorbasedforward) 10
r -t 21.419585568 -s 3 -d -1 -p vectorbasedforward -e 50 -c 2 -a 0 -i 10 -k MAC -R 100.000000