vectorbased
M 0.0 nn 12 x 400 y 400 z 400
M 0.0 prop Propagation/UnderwaterPropagation ant Antenna/OmniAntenna
N -t 1.000000 -n 0 -e 9999.990000
N -t 1.000000 -n 1 -e 9999.990000
N -t 1.000000 -n 2 -e 9999.990000
N -t 1.000000 -n 3 -e 9999.990000
N -t 1.000000 -n 4 -e 9999.990000
N -t 1.000000 -n 5 -e 9999.990000
N -t 1.000000 -n 6 -e 9999.990000
N -t 1.000000 -n 7 -e 9999.990000
N -t 1.000000 -n 8 -e 9999.990000
N -t 1.000000 -n 9 -e 9999.990000
N -t 1.000000 -n 10 -e 9999.990000
N -t 1.000000 -n 11 -e 9999.990000
r 2.000000000 _11_ RTR  --- 0 vectorbasedforward 320 [0 0 0 0] [energy 9999.990000 ei 0.010 es 0.000 et 0.000 er 0.000] ------- [11:0 11:255 0 0] 
N -t 2.000000 -n 0 -e 9999.980000
N -t 2.000000 -n 1 -e 9999.980000
N -t 2.000000 -n 2 -e 9999.980000
N -t 2.000000 -n 3 -e 9999.980000
N -t 2.000000 -n 4 -e 9999.980000
N -t 2.000000 -n 5 -e 9999.980000
N -t 2.000000 -n 6 -e 9999.980000
N -t 2.000000 -n 7 -e 9999.980000
N -t 2.000000 -n 8 -e 9999.980000
N -t 2.000000 -n 9 -e 9999.980000
N -t 2.000000 -n 10 -e 9999.980000
N -t 2.000000 -n 11 -e 9999.980000
s 2.000058958 _11_ MAC  --- 0 vectorbasedforward 320 [0 b000000 ffff0008 0] [energy 9999.980000 ei 0.020 es 0.000 et 0.000 er 0.000] ------- [11:0 11:255 0 0] 
r 2.303199410 _8_ MAC  --- 0 vectorbasedforward 320 [0 b000000 ffff0008 0] [energy 9999.902728 ei 0.020 es 0.000 et 0.000 er 0.077] ------- [11:0 11:255 0 0] 
r 2.303224410 _8_ RTR  --- 0 vectorbasedforward 320 [0 b000000 ffff0008 0] [energy 9999.902728 ei 0.020 es 0.000 et 0.000 er 0.077] ------- [11:0 11:255 0 0] 
r 2.318952165 _9_ MAC  --- 0 vectorbasedforward 320 [0 b000000 ffff0008 0] [energy 9999.902570 ei 0.021 es 0.000 et 0.000 er 0.077] ------- [11:0 11:255 0 0] 
r 2.318977165 _9_ RTR  --- 0 vectorbasedforward 320 [0 b000000 ffff0008 0] [energy 9999.902570 ei 0.021 es 0.000 et 0.000 er 0.077] ------- [11:0 11:255 0 0] 
N -t 3.000000 -n 0 -e 9999.970000
N -t 3.000000 -n 1 -e 9999.970000
N -t 3.000000 -n 2 -e 9999.970000
N -t 3.000000 -n 3 -e 9999.970000
N -t 3.000000 -n 4 -e 9999.970000
N -t 3.000000 -n 5 -e 9999.970000
N -t 3.000000 -n 6 -e 9999.970000
N -t 3.000000 -n 7 -e 9999.970000
N -t 3.000000 -n 8 -e 9999.895760
N -t 3.000000 -n 9 -e 9999.895760
N -t 3.000000 -n 10 -e 9999.970000
N -t 3.000000 -n 11 -e 9999.818960
N -t 4.000000 -n 0 -e 9999.960000
N -t 4.000000 -n 1 -e 9999.960000
N -t 4.000000 -n 2 -e 9999.960000
N -t 4.000000 -n 3 -e 9999.960000
N -t 4.000000 -n 4 -e 9999.960000
N -t 4.000000 -n 5 -e 9999.960000
N -t 4.000000 -n 6 -e 9999.960000
N -t 4.000000 -n 7 -e 9999.960000
N -t 4.000000 -n 8 -e 9999.885760
N -t 4.000000 -n 9 -e 9999.885760
N -t 4.000000 -n 10 -e 9999.960000
N -t 4.000000 -n 11 -e 9999.808960
s 4.300025000 _11_ MAC  --- 0 vectorbasedforward 160 [0 b000000 ffff0008 0] [energy 9999.808960 ei 0.037 es 0.000 et 0.154 er 0.000] ------- [11:255 11:255 0 0] 
r 4.475165452 _8_ MAC  --- 0 vectorbasedforward 160 [0 b000000 ffff0008 0] [energy 9999.843888 ei 0.041 es 0.000 et 0.000 er 0.115] ------- [11:255 11:255 0 0] 
r 4.475190452 _8_ RTR  --- 0 vectorbasedforward 160 [0 b000000 ffff0008 0] [energy 9999.843888 ei 0.041 es 0.000 et 0.000 er 0.115] ------- [11:255 11:255 0 0] 
s 4.475215452 _8_ MAC  --- 0 vectorbasedforward 320 [0 8000000 ffff0008 0] [energy 9999.843888 ei 0.041 es 0.000 et 0.000 er 0.115] ------- [11:0 11:255 0 0] 
r 4.490918208 _9_ MAC  --- 0 vectorbasedforward 160 [0 b000000 ffff0008 0] [energy 9999.843731 ei 0.041 es 0.000 et 0.000 er 0.115] ------- [11:255 11:255 0 0] 
r 4.490943208 _9_ RTR  --- 0 vectorbasedforward 160 [0 b000000 ffff0008 0] [energy 9999.843731 ei 0.041 es 0.000 et 0.000 er 0.115] ------- [11:255 11:255 0 0] 
s 4.490968208 _9_ MAC  --- 0 vectorbasedforward 320 [0 9000000 ffff0008 0] [energy 9999.843731 ei 0.041 es 0.000 et 0.000 er 0.115] ------- [11:0 11:255 0 0] 
D 4.778355904 _11_ MAC Error/Collision 0 vectorbasedforward 320 [0 8000000 ffff0008 0] [energy 9999.641965 ei 0.041 es 0.000 et 0.230 er 0.086] ------- [11:0 11:255 0 0] 
r 4.782869306 _10_ MAC  --- 0 vectorbasedforward 320 [0 9000000 ffff0008 0] [energy 9999.877931 ei 0.045 es 0.000 et 0.000 er 0.077] ------- [11:0 11:255 0 0] 
r 4.782894306 _10_ RTR  --- 0 vectorbasedforward 320 [0 9000000 ffff0008 0] [energy 9999.877931 ei 0.045 es 0.000 et 0.000 er 0.077] ------- [11:0 11:255 0 0] 
r 4.804317043 _7_ MAC  --- 0 vectorbasedforward 320 [0 9000000 ffff0008 0] [energy 9999.877717 ei 0.045 es 0.000 et 0.000 er 0.077] ------- [11:0 11:255 0 0] 
r 4.804342043 _7_ RTR  --- 0 vectorbasedforward 320 [0 9000000 ffff0008 0] [energy 9999.877717 ei 0.045 es 0.000 et 0.000 er 0.077] ------- [11:0 11:255 0 0] 
D 4.809861415 _11_ MAC Error/Collision 0 vectorbasedforward 320 [0 9000000 ffff0008 0] [energy 9999.641965 ei 0.041 es 0.000 et 0.230 er 0.086] ------- [11:0 11:255 0 0] 
N -t 5.000000 -n 0 -e 9999.950000
N -t 5.000000 -n 1 -e 9999.950000
N -t 5.000000 -n 2 -e 9999.950000
N -t 5.000000 -n 3 -e 9999.950000
N -t 5.000000 -n 4 -e 9999.950000
N -t 5.000000 -n 5 -e 9999.950000
N -t 5.000000 -n 6 -e 9999.950000
N -t 5.000000 -n 7 -e 9999.875760
N -t 5.000000 -n 8 -e 9999.687600
N -t 5.000000 -n 9 -e 9999.687600
N -t 5.000000 -n 10 -e 9999.875760
N -t 5.000000 -n 11 -e 9999.640063
N -t 6.000000 -n 0 -e 9999.940000
N -t 6.000000 -n 1 -e 9999.940000
N -t 6.000000 -n 2 -e 9999.940000
N -t 6.000000 -n 3 -e 9999.940000
N -t 6.000000 -n 4 -e 9999.940000
N -t 6.000000 -n 5 -e 9999.940000
N -t 6.000000 -n 6 -e 9999.940000
N -t 6.000000 -n 7 -e 9999.865760
N -t 6.000000 -n 8 -e 9999.677600
N -t 6.000000 -n 9 -e 9999.677600
N -t 6.000000 -n 10 -e 9999.865760
N -t 6.000000 -n 11 -e 9999.630063
N -t 7.000000 -n 0 -e 9999.930000
N -t 7.000000 -n 1 -e 9999.930000
N -t 7.000000 -n 2 -e 9999.930000
N -t 7.000000 -n 3 -e 9999.930000
N -t 7.000000 -n 4 -e 9999.930000
N -t 7.000000 -n 5 -e 9999.930000
N -t 7.000000 -n 6 -e 9999.930000
N -t 7.000000 -n 7 -e 9999.855760
N -t 7.000000 -n 8 -e 9999.667600
N -t 7.000000 -n 9 -e 9999.667600
N -t 7.000000 -n 10 -e 9999.855760
N -t 7.000000 -n 11 -e 9999.620063
s 7.155613101 _8_ MAC  --- 0 vectorbasedforward 160 [0 8000000 ffff0008 0] [energy 9999.667600 ei 0.064 es 0.000 et 0.154 er 0.115] ------- [8:255 8:255 0 0] 
s 7.224090304 _9_ MAC  --- 0 vectorbasedforward 160 [0 9000000 ffff0008 0] [energy 9999.667600 ei 0.064 es 0.000 et 0.154 er 0.115] ------- [9:255 9:255 0 0] 
D 7.330753553 _11_ MAC Error/Collision 0 vectorbasedforward 160 [0 8000000 ffff0008 0] [energy 9999.554367 ei 0.065 es 0.000 et 0.230 er 0.150] ------- [8:255 8:255 0 0] 
r 7.387991403 _10_ MAC  --- 0 vectorbasedforward 160 [0 9000000 ffff0008 0] [energy 9999.814760 ei 0.070 es 0.000 et 0.000 er 0.115] ------- [9:255 9:255 0 0] 
r 7.388016403 _10_ RTR  --- 0 vectorbasedforward 160 [0 9000000 ffff0008 0] [energy 9999.814760 ei 0.070 es 0.000 et 0.000 er 0.115] ------- [9:255 9:255 0 0] 
s 7.388041403 _10_ MAC  --- 0 vectorbasedforward 320 [0 a000000 ffff0008 0] [energy 9999.814760 ei 0.070 es 0.000 et 0.000 er 0.115] ------- [11:0 11:255 0 0] 
r 7.409439139 _7_ MAC  --- 0 vectorbasedforward 160 [0 9000000 ffff0008 0] [energy 9999.814546 ei 0.070 es 0.000 et 0.000 er 0.115] ------- [9:255 9:255 0 0] 
r 7.409464139 _7_ RTR  --- 0 vectorbasedforward 160 [0 9000000 ffff0008 0] [energy 9999.814546 ei 0.070 es 0.000 et 0.000 er 0.115] ------- [9:255 9:255 0 0] 
s 7.409489139 _7_ MAC  --- 0 vectorbasedforward 320 [0 7000000 ffff0008 0] [energy 9999.814546 ei 0.070 es 0.000 et 0.000 er 0.115] ------- [11:0 11:255 0 0] 
D 7.414983512 _11_ MAC Error/Collision 0 vectorbasedforward 160 [0 9000000 ffff0008 0] [energy 9999.554367 ei 0.065 es 0.000 et 0.230 er 0.150] ------- [9:255 9:255 0 0] 
r 7.679942501 _9_ MAC  --- 0 vectorbasedforward 320 [0 a000000 ffff0008 0] [energy 9999.498172 ei 0.067 es 0.000 et 0.230 er 0.205] ------- [11:0 11:255 0 0] 
r 7.679967501 _9_ RTR  --- 0 vectorbasedforward 320 [0 a000000 ffff0008 0] [energy 9999.498172 ei 0.067 es 0.000 et 0.230 er 0.205] ------- [11:0 11:255 0 0] 
r 7.698822472 _6_ MAC  --- 0 vectorbasedforward 320 [0 7000000 ffff0008 0] [energy 9999.848772 ei 0.074 es 0.000 et 0.000 er 0.077] ------- [11:0 11:255 0 0] 
r 7.698847472 _6_ RTR  --- 0 vectorbasedforward 320 [0 7000000 ffff0008 0] [energy 9999.848772 ei 0.074 es 0.000 et 0.000 er 0.077] ------- [11:0 11:255 0 0] 
D 7.722837974 _9_ MAC Error/Collision 0 vectorbasedforward 320 [0 7000000 ffff0008 0] [energy 9999.498172 ei 0.067 es 0.000 et 0.230 er 0.205] ------- [11:0 11:255 0 0] 
N -t 8.000000 -n 0 -e 9999.920000
N -t 8.000000 -n 1 -e 9999.920000
N -t 8.000000 -n 2 -e 9999.920000
N -t 8.000000 -n 3 -e 9999.920000
N -t 8.000000 -n 4 -e 9999.920000
N -t 8.000000 -n 5 -e 9999.920000
N -t 8.000000 -n 6 -e 9999.845760
N -t 8.000000 -n 7 -e 9999.657600
N -t 8.000000 -n 8 -e 9999.582080
N -t 8.000000 -n 9 -e 9999.495400
N -t 8.000000 -n 10 -e 9999.657600
N -t 8.000000 -n 11 -e 9999.548517
N -t 9.000000 -n 0 -e 9999.910000
N -t 9.000000 -n 1 -e 9999.910000
N -t 9.000000 -n 2 -e 9999.910000
N -t 9.000000 -n 3 -e 9999.910000
N -t 9.000000 -n 4 -e 9999.910000
N -t 9.000000 -n 5 -e 9999.910000
N -t 9.000000 -n 6 -e 9999.835760
N -t 9.000000 -n 7 -e 9999.647600
N -t 9.000000 -n 8 -e 9999.572080
N -t 9.000000 -n 9 -e 9999.485400
N -t 9.000000 -n 10 -e 9999.647600
N -t 9.000000 -n 11 -e 9999.538517
N -t 10.000000 -n 0 -e 9999.900000
N -t 10.000000 -n 1 -e 9999.900000
N -t 10.000000 -n 2 -e 9999.900000
N -t 10.000000 -n 3 -e 9999.900000
N -t 10.000000 -n 4 -e 9999.900000
N -t 10.000000 -n 5 -e 9999.900000
N -t 10.000000 -n 6 -e 9999.825760
N -t 10.000000 -n 7 -e 9999.637600
N -t 10.000000 -n 8 -e 9999.562080
N -t 10.000000 -n 9 -e 9999.475400
N -t 10.000000 -n 10 -e 9999.637600
N -t 10.000000 -n 11 -e 9999.528517
s 10.061653708 _10_ MAC  --- 0 vectorbasedforward 160 [0 a000000 ffff0008 0] [energy 9999.637600 ei 0.094 es 0.000 et 0.154 er 0.115] ------- [10:255 10:255 0 0] 
s 10.144089537 _7_ MAC  --- 0 vectorbasedforward 160 [0 7000000 ffff0008 0] [energy 9999.637600 ei 0.094 es 0.000 et 0.154 er 0.115] ------- [7:255 7:255 0 0] 
r 10.225554807 _9_ MAC  --- 0 vectorbasedforward 160 [0 a000000 ffff0008 0] [energy 9999.404860 ei 0.090 es 0.000 et 0.230 er 0.274] ------- [10:255 10:255 0 0] 
r 10.225579807 _9_ RTR  --- 0 vectorbasedforward 160 [0 a000000 ffff0008 0] [energy 9999.404860 ei 0.090 es 0.000 et 0.230 er 0.274] ------- [10:255 10:255 0 0] 
r 10.305422870 _6_ MAC  --- 0 vectorbasedforward 160 [0 7000000 ffff0008 0] [energy 9999.785586 ei 0.099 es 0.000 et 0.000 er 0.115] ------- [7:255 7:255 0 0] 
r 10.305447870 _6_ RTR  --- 0 vectorbasedforward 160 [0 7000000 ffff0008 0] [energy 9999.785586 ei 0.099 es 0.000 et 0.000 er 0.115] ------- [7:255 7:255 0 0] 
s 10.305472870 _6_ MAC  --- 0 vectorbasedforward 320 [0 6000000 ffff0008 0] [energy 9999.785586 ei 0.099 es 0.000 et 0.000 er 0.115] ------- [11:0 11:255 0 0] 
D 10.329438372 _9_ MAC Error/Collision 0 vectorbasedforward 160 [0 7000000 ffff0008 0] [energy 9999.404860 ei 0.090 es 0.000 et 0.230 er 0.274] ------- [7:255 7:255 0 0] 
r 10.594806204 _7_ MAC  --- 0 vectorbasedforward 320 [0 6000000 ffff0008 0] [energy 9999.481892 ei 0.096 es 0.000 et 0.230 er 0.192] ------- [11:0 11:255 0 0] 
r 10.594831204 _7_ RTR  --- 0 vectorbasedforward 320 [0 6000000 ffff0008 0] [energy 9999.481892 ei 0.096 es 0.000 et 0.230 er 0.192] ------- [11:0 11:255 0 0] 
r 10.608613323 _5_ MAC  --- 0 vectorbasedforward 320 [0 6000000 ffff0008 0] [energy 9999.819674 ei 0.104 es 0.000 et 0.000 er 0.077] ------- [11:0 11:255 0 0] 
r 10.608638323 _5_ RTR  --- 0 vectorbasedforward 320 [0 6000000 ffff0008 0] [energy 9999.819674 ei 0.104 es 0.000 et 0.000 er 0.077] ------- [11:0 11:255 0 0] 
N -t 11.000000 -n 0 -e 9999.890000
N -t 11.000000 -n 1 -e 9999.890000
N -t 11.000000 -n 2 -e 9999.890000
N -t 11.000000 -n 3 -e 9999.890000
N -t 11.000000 -n 4 -e 9999.890000
N -t 11.000000 -n 5 -e 9999.815760
N -t 11.000000 -n 6 -e 9999.627600
N -t 11.000000 -n 7 -e 9999.477840
N -t 11.000000 -n 8 -e 9999.552080
N -t 11.000000 -n 9 -e 9999.398154
N -t 11.000000 -n 10 -e 9999.552080
N -t 11.000000 -n 11 -e 9999.518517
s 11.508143776 _11_ MAC  --- 0 vectorbasedvoidavoidance 320 [0 b000000 ffff0008 0] [energy 9999.518517 ei 0.101 es 0.000 et 0.230 er 0.150] ------- [11:255 11:255 0 0] 
r 11.811284228 _8_ MAC  --- 0 vectorbasedvoidavoidance 320 [0 b000000 ffff0008 0] [energy 9999.469727 ei 0.108 es 0.000 et 0.230 er 0.192] ------- [11:255 11:255 0 0] 
r 11.811309228 _8_ RTR  --- 0 vectorbasedvoidavoidance 320 [0 b000000 ffff0008 0] [energy 9999.469727 ei 0.108 es 0.000 et 0.230 er 0.192] ------- [11:255 11:255 0 0] 
r 11.827036983 _9_ MAC  --- 0 vectorbasedvoidavoidance 320 [0 b000000 ffff0008 0] [energy 9999.315644 ei 0.103 es 0.000 et 0.230 er 0.351] ------- [11:255 11:255 0 0] 
r 11.827061983 _9_ RTR  --- 0 vectorbasedvoidavoidance 320 [0 b000000 ffff0008 0] [energy 9999.315644 ei 0.103 es 0.000 et 0.230 er 0.351] ------- [11:255 11:255 0 0] 
r 12.000000000 _11_ RTR  --- 1 vectorbasedforward 320 [0 0 0 0] [energy 9999.359835 ei 0.106 es 0.000 et 0.384 er 0.150] ------- [11:0 11:255 0 0] 
N -t 12.000000 -n 0 -e 9999.880000
N -t 12.000000 -n 1 -e 9999.880000
N -t 12.000000 -n 2 -e 9999.880000
N -t 12.000000 -n 3 -e 9999.880000
N -t 12.000000 -n 4 -e 9999.880000
N -t 12.000000 -n 5 -e 9999.805760
N -t 12.000000 -n 6 -e 9999.617600
N -t 12.000000 -n 7 -e 9999.467840
N -t 12.000000 -n 8 -e 9999.467840
N -t 12.000000 -n 9 -e 9999.313914
N -t 12.000000 -n 10 -e 9999.542080
N -t 12.000000 -n 11 -e 9999.357477
s 12.042593728 _11_ MAC  --- 1 vectorbasedforward 320 [0 b000000 ffff0008 0] [energy 9999.357477 ei 0.109 es 0.000 et 0.384 er 0.150] ------- [11:0 11:255 0 0] 
r 12.345734180 _8_ MAC  --- 1 vectorbasedforward 320 [0 b000000 ffff0008 0] [energy 9999.390143 ei 0.111 es 0.000 et 0.230 er 0.269] ------- [11:0 11:255 0 0] 
r 12.345759180 _8_ RTR  --- 1 vectorbasedforward 320 [0 b000000 ffff0008 0] [energy 9999.390143 ei 0.111 es 0.000 et 0.230 er 0.269] ------- [11:0 11:255 0 0] 
r 12.361486935 _9_ MAC  --- 1 vectorbasedforward 320 [0 b000000 ffff0008 0] [energy 9999.236059 ei 0.106 es 0.000 et 0.230 er 0.428] ------- [11:0 11:255 0 0] 
r 12.361511935 _9_ RTR  --- 1 vectorbasedforward 320 [0 b000000 ffff0008 0] [energy 9999.236059 ei 0.106 es 0.000 et 0.230 er 0.428] ------- [11:0 11:255 0 0] 
s 12.988528889 _6_ MAC  --- 0 vectorbasedforward 160 [0 6000000 ffff0008 0] [energy 9999.617600 ei 0.114 es 0.000 et 0.154 er 0.115] ------- [6:255 6:255 0 0] 
N -t 13.000000 -n 0 -e 9999.870000
N -t 13.000000 -n 1 -e 9999.870000
N -t 13.000000 -n 2 -e 9999.870000
N -t 13.000000 -n 3 -e 9999.870000
N -t 13.000000 -n 4 -e 9999.870000
N -t 13.000000 -n 5 -e 9999.795760
N -t 13.000000 -n 6 -e 9999.530915
N -t 13.000000 -n 7 -e 9999.457840
N -t 13.000000 -n 8 -e 9999.383600
N -t 13.000000 -n 9 -e 9999.229674
N -t 13.000000 -n 10 -e 9999.532080
N -t 13.000000 -n 11 -e 9999.196437
r 13.149862222 _7_ MAC  --- 0 vectorbasedforward 160 [0 6000000 ffff0008 0] [energy 9999.419221 ei 0.120 es 0.000 et 0.230 er 0.230] ------- [6:255 6:255 0 0] 
r 13.149887222 _7_ RTR  --- 0 vectorbasedforward 160 [0 6000000 ffff0008 0] [energy 9999.419221 ei 0.120 es 0.000 et 0.230 er 0.230] ------- [6:255 6:255 0 0] 
r 13.163669341 _5_ MAC  --- 0 vectorbasedforward 160 [0 6000000 ffff0008 0] [energy 9999.757003 ei 0.128 es 0.000 et 0.000 er 0.115] ------- [6:255 6:255 0 0] 
r 13.163694341 _5_ RTR  --- 0 vectorbasedforward 160 [0 6000000 ffff0008 0] [energy 9999.757003 ei 0.128 es 0.000 et 0.000 er 0.115] ------- [6:255 6:255 0 0] 
s 13.163719341 _5_ MAC  --- 0 vectorbasedforward 320 [0 5000000 ffff0008 0] [energy 9999.757003 ei 0.128 es 0.000 et 0.000 er 0.115] ------- [11:0 11:255 0 0] 
r 13.462406836 _4_ MAC  --- 0 vectorbasedforward 320 [0 5000000 ffff0008 0] [energy 9999.791136 ei 0.132 es 0.000 et 0.000 er 0.077] ------- [11:0 11:255 0 0] 
r 13.462431836 _4_ RTR  --- 0 vectorbasedforward 320 [0 5000000 ffff0008 0] [energy 9999.791136 ei 0.132 es 0.000 et 0.000 er 0.077] ------- [11:0 11:255 0 0] 
r 13.466859793 _6_ MAC  --- 0 vectorbasedforward 320 [0 5000000 ffff0008 0] [energy 9999.453171 ei 0.124 es 0.000 et 0.230 er 0.192] ------- [11:0 11:255 0 0] 
r 13.466884793 _6_ RTR  --- 0 vectorbasedforward 320 [0 5000000 ffff0008 0] [energy 9999.453171 ei 0.124 es 0.000 et 0.230 er 0.192] ------- [11:0 11:255 0 0] 
N -t 14.000000 -n 0 -e 9999.860000
N -t 14.000000 -n 1 -e 9999.860000
N -t 14.000000 -n 2 -e 9999.860000
N -t 14.000000 -n 3 -e 9999.860000
N -t 14.000000 -n 4 -e 9999.785760
N -t 14.000000 -n 5 -e 9999.597600
N -t 14.000000 -n 6 -e 9999.447840
N -t 14.000000 -n 7 -e 9999.410720
N -t 14.000000 -n 8 -e 9999.373600
N -t 14.000000 -n 9 -e 9999.219674
N -t 14.000000 -n 10 -e 9999.522080
N -t 14.000000 -n 11 -e 9999.186437
s 14.300025000 _11_ MAC  --- 0 vectorbasedforward 160 [0 b000000 ffff0008 0] [energy 9999.186437 ei 0.126 es 0.000 et 0.538 er 0.150] ------- [11:255 11:255 0 0] 
r 14.475165452 _8_ MAC  --- 0 vectorbasedforward 160 [0 b000000 ffff0008 0] [energy 9999.331728 ei 0.131 es 0.000 et 0.230 er 0.307] ------- [11:255 11:255 0 0] 
r 14.475190452 _8_ RTR  --- 0 vectorbasedforward 160 [0 b000000 ffff0008 0] [energy 9999.331728 ei 0.131 es 0.000 et 0.230 er 0.307] ------- [11:255 11:255 0 0] 
r 14.490918208 _9_ MAC  --- 0 vectorbasedforward 160 [0 b000000 ffff0008 0] [energy 9999.177645 ei 0.126 es 0.000 et 0.230 er 0.466] ------- [11:255 11:255 0 0] 
r 14.490943208 _9_ RTR  --- 0 vectorbasedforward 160 [0 b000000 ffff0008 0] [energy 9999.177645 ei 0.126 es 0.000 et 0.230 er 0.466] ------- [11:255 11:255 0 0] 
s 14.490968208 _9_ MAC  --- 1 vectorbasedforward 320 [0 9000000 ffff0008 0] [energy 9999.177645 ei 0.126 es 0.000 et 0.230 er 0.466] ------- [11:0 11:255 0 0] 
s 14.527608128 _8_ MAC  --- 0 vectorbasedvoidavoidance 320 [0 8000000 ffff0008 0] [energy 9999.331728 ei 0.131 es 0.000 et 0.230 er 0.307] ------- [8:255 8:255 0 0] 
s 14.527708128 _8_ MAC  --- 1 vectorbasedforward 320 [0 8000000 ffff0008 0] [energy 9999.177604 ei 0.131 es 0.000 et 0.384 er 0.307] ------- [11:0 11:255 0 0] 
r 14.782869306 _10_ MAC  --- 1 vectorbasedforward 320 [0 9000000 ffff0008 0] [energy 9999.440011 ei 0.138 es 0.000 et 0.230 er 0.192] ------- [11:0 11:255 0 0] 
r 14.782894306 _10_ RTR  --- 1 vectorbasedforward 320 [0 9000000 ffff0008 0] [energy 9999.440011 ei 0.138 es 0.000 et 0.230 er 0.192] ------- [11:0 11:255 0 0] 
r 14.804317043 _7_ MAC  --- 1 vectorbasedforward 320 [0 9000000 ffff0008 0] [energy 9999.328437 ei 0.134 es 0.000 et 0.230 er 0.307] ------- [11:0 11:255 0 0] 
r 14.804342043 _7_ RTR  --- 1 vectorbasedforward 320 [0 9000000 ffff0008 0] [energy 9999.328437 ei 0.134 es 0.000 et 0.230 er 0.307] ------- [11:0 11:255 0 0] 
D 14.809861415 _11_ MAC Error/Collision 1 vectorbasedforward 320 [0 9000000 ffff0008 0] [energy 9999.022282 ei 0.130 es 0.000 et 0.614 er 0.233] ------- [11:0 11:255 0 0] 
D 14.830748580 _11_ MAC Error/Collision 0 vectorbasedvoidavoidance 320 [0 8000000 ffff0008 0] [energy 9999.022282 ei 0.130 es 0.000 et 0.614 er 0.233] ------- [8:255 8:255 0 0] 
D 14.830848580 _11_ MAC Error/Collision 1 vectorbasedforward 320 [0 8000000 ffff0008 0] [energy 9999.022282 ei 0.130 es 0.000 et 0.614 er 0.233] ------- [11:0 11:255 0 0] 
N -t 15.000000 -n 0 -e 9999.850000
N -t 15.000000 -n 1 -e 9999.850000
N -t 15.000000 -n 2 -e 9999.850000
N -t 15.000000 -n 3 -e 9999.850000
N -t 15.000000 -n 4 -e 9999.775760
N -t 15.000000 -n 5 -e 9999.587600
N -t 15.000000 -n 6 -e 9999.437840
N -t 15.000000 -n 7 -e 9999.326480
N -t 15.000000 -n 8 -e 9999.021841
N -t 15.000000 -n 9 -e 9999.021514
N -t 15.000000 -n 10 -e 9999.437840
N -t 15.000000 -n 11 -e 9999.020590
s 15.910809754 _5_ MAC  --- 0 vectorbasedforward 160 [0 5000000 ffff0008 0] [energy 9999.587600 ei 0.144 es 0.000 et 0.154 er 0.115] ------- [5:255 5:255 0 0] 
N -t 16.000000 -n 0 -e 9999.840000
N -t 16.000000 -n 1 -e 9999.840000
N -t 16.000000 -n 2 -e 9999.840000
N -t 16.000000 -n 3 -e 9999.840000
N -t 16.000000 -n 4 -e 9999.727825
N -t 16.000000 -n 5 -e 9999.501692
N -t 16.000000 -n 6 -e 9999.389860
N -t 16.000000 -n 7 -e 9999.316480
N -t 16.000000 -n 8 -e 9999.011841
N -t 16.000000 -n 9 -e 9999.011514
N -t 16.000000 -n 10 -e 9999.427840
N -t 16.000000 -n 11 -e 9999.010590
r 16.081497249 _4_ MAC  --- 0 vectorbasedforward 160 [0 5000000 ffff0008 0] [energy 9999.727825 ei 0.157 es 0.000 et 0.000 er 0.115] ------- [5:255 5:255 0 0] 
r 16.081522249 _4_ RTR  --- 0 vectorbasedforward 160 [0 5000000 ffff0008 0] [energy 9999.727825 ei 0.157 es 0.000 et 0.000 er 0.115] ------- [5:255 5:255 0 0] 
s 16.081547249 _4_ MAC  --- 0 vectorbasedforward 320 [0 4000000 ffff0008 0] [energy 9999.727825 ei 0.157 es 0.000 et 0.000 er 0.115] ------- [11:0 11:255 0 0] 
r 16.085950206 _6_ MAC  --- 0 vectorbasedforward 160 [0 5000000 ffff0008 0] [energy 9999.389860 ei 0.149 es 0.000 et 0.230 er 0.230] ------- [5:255 5:255 0 0] 
r 16.085975206 _6_ RTR  --- 0 vectorbasedforward 160 [0 5000000 ffff0008 0] [energy 9999.389860 ei 0.149 es 0.000 et 0.230 er 0.230] ------- [5:255 5:255 0 0] 
r 16.380234744 _5_ MAC  --- 0 vectorbasedforward 320 [0 4000000 ffff0008 0] [energy 9999.424038 ei 0.154 es 0.000 et 0.230 er 0.192] ------- [11:0 11:255 0 0] 
r 16.380259744 _5_ RTR  --- 0 vectorbasedforward 320 [0 4000000 ffff0008 0] [energy 9999.424038 ei 0.154 es 0.000 et 0.230 er 0.192] ------- [11:0 11:255 0 0] 
r 16.394507274 _3_ MAC  --- 0 vectorbasedforward 320 [0 4000000 ffff0008 0] [energy 9999.761815 ei 0.161 es 0.000 et 0.000 er 0.077] ------- [11:0 11:255 0 0] 
r 16.394532274 _3_ RTR  --- 0 vectorbasedforward 320 [0 4000000 ffff0008 0] [energy 9999.761815 ei 0.161 es 0.000 et 0.000 er 0.077] ------- [11:0 11:255 0 0] 
N -t 17.000000 -n 0 -e 9999.830000
N -t 17.000000 -n 1 -e 9999.830000
N -t 17.000000 -n 2 -e 9999.830000
N -t 17.000000 -n 3 -e 9999.755760
N -t 17.000000 -n 4 -e 9999.567600
N -t 17.000000 -n 5 -e 9999.417840
N -t 17.000000 -n 6 -e 9999.380720
N -t 17.000000 -n 7 -e 9999.306480
N -t 17.000000 -n 8 -e 9999.001841
N -t 17.000000 -n 9 -e 9999.001514
N -t 17.000000 -n 10 -e 9999.417840
N -t 17.000000 -n 11 -e 9999.000590
s 17.199069198 _9_ MAC  --- 0 vectorbasedforward 160 [0 9000000 ffff0008 0] [energy 9999.001514 ei 0.148 es 0.000 et 0.384 er 0.466] ------- [9:255 9:255 0 0] 
s 17.208593463 _10_ MAC  --- 0 vectorbasedvoidavoidance 320 [0 a000000 ffff0008 0] [energy 9999.417840 ei 0.160 es 0.000 et 0.230 er 0.192] ------- [10:255 10:255 0 0] 
s 17.212169825 _8_ MAC  --- 0 vectorbasedforward 160 [0 8000000 ffff0008 0] [energy 9999.001841 ei 0.153 es 0.000 et 0.538 er 0.307] ------- [8:255 8:255 0 0] 
r 17.362970297 _10_ MAC  --- 0 vectorbasedforward 160 [0 9000000 ffff0008 0] [energy 9999.262154 ei 0.162 es 0.000 et 0.384 er 0.192] ------- [9:255 9:255 0 0] 
r 17.362995297 _10_ RTR  --- 0 vectorbasedforward 160 [0 9000000 ffff0008 0] [energy 9999.262154 ei 0.162 es 0.000 et 0.384 er 0.192] ------- [9:255 9:255 0 0] 
s 17.363020297 _10_ MAC  --- 1 vectorbasedforward 320 [0 a000000 ffff0008 0] [energy 9999.262154 ei 0.162 es 0.000 et 0.384 er 0.192] ------- [11:0 11:255 0 0] 
r 17.384418033 _7_ MAC  --- 0 vectorbasedforward 160 [0 9000000 ffff0008 0] [energy 9999.265516 ei 0.158 es 0.000 et 0.230 er 0.346] ------- [9:255 9:255 0 0] 
r 17.384443033 _7_ RTR  --- 0 vectorbasedforward 160 [0 9000000 ffff0008 0] [energy 9999.265516 ei 0.158 es 0.000 et 0.230 er 0.346] ------- [9:255 9:255 0 0] 
s 17.384468033 _7_ MAC  --- 1 vectorbasedforward 320 [0 7000000 ffff0008 0] [energy 9999.265516 ei 0.158 es 0.000 et 0.230 er 0.346] ------- [11:0 11:255 0 0] 
D 17.387310277 _11_ MAC Error/Collision 0 vectorbasedforward 160 [0 8000000 ffff0008 0] [energy 9998.958802 ei 0.155 es 0.000 et 0.614 er 0.272] ------- [8:255 8:255 0 0] 
D 17.389962406 _11_ MAC Error/Collision 0 vectorbasedforward 160 [0 9000000 ffff0008 0] [energy 9998.958802 ei 0.155 es 0.000 et 0.614 er 0.272] ------- [9:255 9:255 0 0] 
D 17.500494561 _9_ MAC Error/Collision 0 vectorbasedvoidavoidance 320 [0 a000000 ffff0008 0] [energy 9998.811499 ei 0.150 es 0.000 et 0.461 er 0.578] ------- [10:255 10:255 0 0] 
D 17.654921396 _9_ MAC Error/Collision 1 vectorbasedforward 320 [0 a000000 ffff0008 0] [energy 9998.811499 ei 0.150 es 0.000 et 0.461 er 0.578] ------- [11:0 11:255 0 0] 
r 17.673801367 _6_ MAC  --- 1 vectorbasedforward 320 [0 7000000 ffff0008 0] [energy 9999.299742 ei 0.163 es 0.000 et 0.230 er 0.307] ------- [11:0 11:255 0 0] 
r 17.673826367 _6_ RTR  --- 1 vectorbasedforward 320 [0 7000000 ffff0008 0] [energy 9999.299742 ei 0.163 es 0.000 et 0.230 er 0.307] ------- [11:0 11:255 0 0] 
D 17.697816869 _9_ MAC Error/Collision 1 vectorbasedforward 320 [0 7000000 ffff0008 0] [energy 9998.811499 ei 0.150 es 0.000 et 0.461 er 0.578] ------- [11:0 11:255 0 0] 
N -t 18.000000 -n 0 -e 9999.820000
N -t 18.000000 -n 1 -e 9999.820000
N -t 18.000000 -n 2 -e 9999.820000
N -t 18.000000 -n 3 -e 9999.745760
N -t 18.000000 -n 4 -e 9999.557600
N -t 18.000000 -n 5 -e 9999.407840
N -t 18.000000 -n 6 -e 9999.296480
N -t 18.000000 -n 7 -e 9999.108320
N -t 18.000000 -n 8 -e 9998.916321
N -t 18.000000 -n 9 -e 9998.808477
N -t 18.000000 -n 10 -e 9999.104744
N -t 18.000000 -n 11 -e 9998.952701
s 18.822230912 _4_ MAC  --- 0 vectorbasedforward 160 [0 4000000 ffff0008 0] [energy 9999.557600 ei 0.174 es 0.000 et 0.154 er 0.115] ------- [4:255 4:255 0 0] 
r 18.992918407 _5_ MAC  --- 0 vectorbasedforward 160 [0 4000000 ffff0008 0] [energy 9999.360791 ei 0.178 es 0.000 et 0.230 er 0.230] ------- [4:255 4:255 0 0] 
r 18.992943407 _5_ RTR  --- 0 vectorbasedforward 160 [0 4000000 ffff0008 0] [energy 9999.360791 ei 0.178 es 0.000 et 0.230 er 0.230] ------- [4:255 4:255 0 0] 
N -t 19.000000 -n 0 -e 9999.810000
N -t 19.000000 -n 1 -e 9999.810000
N -t 19.000000 -n 2 -e 9999.810000
N -t 19.000000 -n 3 -e 9999.698568
N -t 19.000000 -n 4 -e 9999.472080
N -t 19.000000 -n 5 -e 9999.360720
N -t 19.000000 -n 6 -e 9999.286480
N -t 19.000000 -n 7 -e 9999.098320
N -t 19.000000 -n 8 -e 9998.906321
N -t 19.000000 -n 9 -e 9998.798477
N -t 19.000000 -n 10 -e 9999.094744
N -t 19.000000 -n 11 -e 9998.942701
r 19.007190937 _3_ MAC  --- 0 vectorbasedforward 160 [0 4000000 ffff0008 0] [energy 9999.698568 ei 0.186 es 0.000 et 0.000 er 0.115] ------- [4:255 4:255 0 0] 
r 19.007215937 _3_ RTR  --- 0 vectorbasedforward 160 [0 4000000 ffff0008 0] [energy 9999.698568 ei 0.186 es 0.000 et 0.000 er 0.115] ------- [4:255 4:255 0 0] 
s 19.007240937 _3_ MAC  --- 0 vectorbasedforward 320 [0 3000000 ffff0008 0] [energy 9999.698568 ei 0.186 es 0.000 et 0.000 er 0.115] ------- [11:0 11:255 0 0] 
r 19.320200962 _4_ MAC  --- 0 vectorbasedforward 320 [0 3000000 ffff0008 0] [energy 9999.394638 ei 0.183 es 0.000 et 0.230 er 0.192] ------- [11:0 11:255 0 0] 
r 19.320225962 _4_ RTR  --- 0 vectorbasedforward 320 [0 3000000 ffff0008 0] [energy 9999.394638 ei 0.183 es 0.000 et 0.230 er 0.192] ------- [11:0 11:255 0 0] 
r 19.326486490 _2_ MAC  --- 0 vectorbasedforward 320 [0 3000000 ffff0008 0] [energy 9999.732495 ei 0.191 es 0.000 et 0.000 er 0.077] ------- [11:0 11:255 0 0] 
r 19.326511490 _2_ RTR  --- 0 vectorbasedforward 320 [0 3000000 ffff0008 0] [energy 9999.732495 ei 0.191 es 0.000 et 0.000 er 0.077] ------- [11:0 11:255 0 0] 
N -t 20.000000 -n 0 -e 9999.800000
N -t 20.000000 -n 1 -e 9999.800000
N -t 20.000000 -n 2 -e 9999.725760
N -t 20.000000 -n 3 -e 9999.537600
N -t 20.000000 -n 4 -e 9999.387840
N -t 20.000000 -n 5 -e 9999.350720
N -t 20.000000 -n 6 -e 9999.276480
N -t 20.000000 -n 7 -e 9999.088320
N -t 20.000000 -n 8 -e 9998.896321
N -t 20.000000 -n 9 -e 9998.788477
N -t 20.000000 -n 10 -e 9999.084744
N -t 20.000000 -n 11 -e 9998.932701
s 20.014109758 _10_ MAC  --- 0 vectorbasedforward 160 [0 a000000 ffff0008 0] [energy 9999.084744 ei 0.186 es 0.000 et 0.538 er 0.192] ------- [10:255 10:255 0 0] 
s 20.077949217 _7_ MAC  --- 0 vectorbasedforward 160 [0 7000000 ffff0008 0] [energy 9999.088320 ei 0.182 es 0.000 et 0.384 er 0.346] ------- [7:255 7:255 0 0] 
r 20.178010856 _9_ MAC  --- 0 vectorbasedforward 160 [0 a000000 ffff0008 0] [energy 9998.723991 ei 0.174 es 0.000 et 0.461 er 0.642] ------- [10:255 10:255 0 0] 
r 20.178035856 _9_ RTR  --- 0 vectorbasedforward 160 [0 a000000 ffff0008 0] [energy 9998.723991 ei 0.174 es 0.000 et 0.461 er 0.642] ------- [10:255 10:255 0 0] 
r 20.239282550 _6_ MAC  --- 0 vectorbasedforward 160 [0 7000000 ffff0008 0] [energy 9999.236967 ei 0.187 es 0.000 et 0.230 er 0.346] ------- [7:255 7:255 0 0] 
r 20.239307550 _6_ RTR  --- 0 vectorbasedforward 160 [0 7000000 ffff0008 0] [energy 9999.236967 ei 0.187 es 0.000 et 0.230 er 0.346] ------- [7:255 7:255 0 0] 
s 20.239332550 _6_ MAC  --- 1 vectorbasedforward 320 [0 6000000 ffff0008 0] [energy 9999.236967 ei 0.187 es 0.000 et 0.230 er 0.346] ------- [11:0 11:255 0 0] 
D 20.263298052 _9_ MAC Error/Collision 0 vectorbasedforward 160 [0 7000000 ffff0008 0] [energy 9998.723991 ei 0.174 es 0.000 et 0.461 er 0.642] ------- [7:255 7:255 0 0] 
r 20.528665884 _7_ MAC  --- 1 vectorbasedforward 320 [0 6000000 ffff0008 0] [energy 9998.933273 ei 0.184 es 0.000 et 0.461 er 0.422] ------- [11:0 11:255 0 0] 
r 20.528690884 _7_ RTR  --- 1 vectorbasedforward 320 [0 6000000 ffff0008 0] [energy 9998.933273 ei 0.184 es 0.000 et 0.461 er 0.422] ------- [11:0 11:255 0 0] 
r 20.542473003 _5_ MAC  --- 1 vectorbasedforward 320 [0 6000000 ffff0008 0] [energy 9999.271055 ei 0.191 es 0.000 et 0.230 er 0.307] ------- [11:0 11:255 0 0] 
r 20.542498003 _5_ RTR  --- 1 vectorbasedforward 320 [0 6000000 ffff0008 0] [energy 9999.271055 ei 0.191 es 0.000 et 0.230 er 0.307] ------- [11:0 11:255 0 0] 
N -t 21.000000 -n 0 -e 9999.790000
N -t 21.000000 -n 1 -e 9999.790000
N -t 21.000000 -n 2 -e 9999.715760
N -t 21.000000 -n 3 -e 9999.527600
N -t 21.000000 -n 4 -e 9999.377840
N -t 21.000000 -n 5 -e 9999.266480
N -t 21.000000 -n 6 -e 9999.078320
N -t 21.000000 -n 7 -e 9998.928560
N -t 21.000000 -n 8 -e 9998.886321
N -t 21.000000 -n 9 -e 9998.716624
N -t 21.000000 -n 10 -e 9998.999224
N -t 21.000000 -n 11 -e 9998.922701